Title
35437
    1DOPC     N    1   3.436   1.390   5.388 -0.0230  0.3964 -1.0131
    1DOPC   C12    2   3.342   1.263   5.389  0.2389 -1.1733 -0.5717
    1DOPC  H12A    3   3.398   1.190   5.444  1.9623  0.0039 -0.6571
    1DOPC  H12B    4   3.308   1.243   5.288  0.2990 -0.8605 -0.6572
    1DOPC   C13    5   3.373   1.504   5.312 -0.1252  0.4018  0.3721
    1DOPC  H13A    6   3.273   1.508   5.353 -0.2607 -0.2159  0.1230
    1DOPC  H13B    7   3.430   1.594   5.323  0.0023  0.1473  2.0542
    1DOPC  H13C    8   3.357   1.481   5.207  0.7441  0.7835  0.1469
    1DOPC   C14    9   3.568   1.347   5.323 -0.2704  0.4392  0.0387
    1DOPC  H14A   10   3.620   1.263   5.367  0.6135 -0.9660 -3.3566
    1DOPC  H14B   11   3.540   1.304   5.228 -0.1901 -0.3188  0.3483
    1DOPC  H14C   12   3.641   1.426   5.318  0.4534 -0.2396 -0.5398
    1DOPC   C15   13   3.469   1.437   5.525  0.1131 -0.5565  0.3058
    1DOPC  H15A   14   3.519   1.532   5.520 -0.1899 -0.3093  1.6300
    1DOPC  H15B   15   3.534   1.376   5.587  0.9342  0.2171  0.2243
    1DOPC  H15C   16   3.381   1.458   5.584 -1.6455 -0.7642 -2.0679
    1DOPC   C11   17   3.204   1.288   5.465 -0.2040  0.1493 -0.6117
    1DOPC  H11A   18   3.155   1.191   5.490  0.1229  0.7657  2.9826
    1DOPC  H11B   19   3.238   1.314   5.568  3.9945  1.2397 -2.0598
    1DOPC     P   20   3.031   1.330   5.281  0.2075 -0.5418  0.0654
    1DOPC   O13   21   2.971   1.448   5.211 -0.5039 -0.3289 -0.7245
    1DOPC   O14   22   2.931   1.223   5.319  0.6790 -0.1138 -0.0010
    1DOPC   O12   23   3.110   1.384   5.407 -0.1077 -0.0671 -0.2463
    1DOPC   O11   24   3.141   1.263   5.180  0.1905  0.1087  0.2918
    1DOPC    C1   25   3.130   1.136   5.118 -0.4778 -0.5390 -0.2031
    1DOPC    HA   26   3.100   1.058   5.191  2.1821 -0.4573  1.1345
    1DOPC    HB   27   3.232   1.102   5.089 -0.4083 -0.9527  0.5030
    1DOPC    C2   28   3.040   1.132   4.992  0.2980 -0.1110 -0.7390
    1DOPC    HS   29   3.077   1.060   4.916  0.6643 -0.9898  0.2483
    1DOPC   O21   30   3.024   1.265   4.931  0.5162 -0.1041 -0.0247
    1DOPC   C21   31   3.128   1.298   4.859 -1.0281 -1.0937  0.6420
    1DOPC   O22   32   3.230   1.231   4.847 -0.1753  0.1163  0.2317
    1DOPC   C22   33   3.096   1.441   4.803 -0.2507  0.5083 -0.2821
    1DOPC   H2R   34   2.989   1.470   4.811  0.0616  2.5440 -2.4366
    1DOPC   H2S   35   3.126   1.420   4.699  0.2604 -1.4462  0.2132
    1DOPC    C3   36   2.905   1.071   5.018 -0.6667 -0.1756  0.7029
    1DOPC    HX   37   2.849   1.129   5.095 -2.0255  0.6932 -0.8566
    1DOPC    HY   38   2.933   0.976   5.068  1.5302  1.2040  2.2255
    1DOPC   O31   39   2.820   1.061   4.898 -0.0135  0.0729  0.0942
    1DOPC   C31   40   2.730   1.153   4.879 -0.1137  0.9094 -0.3828
    1DOPC   O32   41   2.704   1.247   4.950 -0.4581 -0.1184  0.2972
    1DOPC   C32   42   2.653   1.116   4.751 -0.6711 -0.5540 -0.9221
    1DOPC   H2X   43   2.670   1.016   4.705  1.2508  0.0255 -1.5606
    1DOPC   H2Y   44   2.545   1.114   4.778  0.0046 -0.8783  2.1118
    1DOPC   C23   45   3.166   1.556   4.875 -0.3513 -0.7228 -0.5460
    1DOPC   H3R   46   3.276   1.550   4.862 -0.3311  1.4314 -1.9399
    1DOPC   H3S   47   3.133   1.557   4.981  0.3797 -0.4302 -0.3168
    1DOPC   C24   48   3.129   1.694   4.807  0.6860 -0.4939 -0.2940
    1DOPC   H4R   49   3.168   1.775   4.872  2.0456  0.1670 -1.8446
    1DOPC   H4S   50   3.020   1.712   4.807  0.7948  0.6860  2.4806
    1DOPC   C25   51   3.194   1.720   4.672  0.6767 -0.5790  0.2139
    1DOPC   H5R   52   3.149   1.819   4.649  1.7430 -0.3618 -1.1290
    1DOPC   H5S   53   3.175   1.634   4.605  0.0177 -1.1791  1.1542
    1DOPC   C26   54   3.348   1.747   4.668  0.7592 -0.3396 -0.0638
    1DOPC   H6R   55   3.395   1.675   4.737  0.1338 -0.7064 -0.0157
    1DOPC   H6S   56   3.373   1.854   4.685 -1.1674  0.0911  0.3239
    1DOPC   C27   57   3.391   1.721   4.525 -0.1826 -0.3981 -1.1116
    1DOPC   H7R   58   3.337   1.789   4.456  1.1521  1.8809 -0.0409
    1DOPC   H7S   59   3.362   1.618   4.494 -1.8679 -0.5222  0.6776
    1DOPC   C28   60   3.545   1.740   4.515 -0.1798  0.5521 -0.0449
    1DOPC   H8R   61   3.600   1.679   4.589  1.4783  1.5351 -0.4176
    1DOPC   H8S   62   3.580   1.842   4.539  0.8214 -0.1821  1.7971
    1DOPC   C29   63   3.584   1.697   4.376 -0.1642 -0.1150  0.1473
    1DOPC   H9R   64   3.549   1.760   4.293 -0.6747 -1.3803 -0.6255
    1DOPC  C210   65   3.632   1.575   4.336 -0.2367 -0.1635 -0.3618
    1DOPC  H10R   66   3.658   1.555   4.231  0.2606  1.0413 -0.4881
    1DOPC  C211   67   3.687   1.469   4.425 -0.4986 -0.5587 -0.1243
    1DOPC  H11R   68   3.721   1.502   4.526  1.9867 -1.4620 -0.6025
    1DOPC  H11S   69   3.791   1.441   4.397 -0.0099  3.2459 -2.8878
    1DOPC  C212   70   3.607   1.340   4.431 -0.2998  0.1409  0.5908
    1DOPC  H12R   71   3.682   1.261   4.456  0.5637  0.0349 -2.0410
    1DOPC  H12S   72   3.577   1.316   4.327  0.9945  0.1577  0.2010
    1DOPC  C213   73   3.477   1.343   4.519  0.0656  0.7114 -0.8379
    1DOPC  H13R   74   3.436   1.239   4.518  1.5719  0.0001  1.4091
    1DOPC  H13S   75   3.403   1.413   4.476  0.0830 -0.2840 -2.6097
    1DOPC  C214   76   3.505   1.386   4.667 -0.2974  0.3434 -0.6817
    1DOPC  H14R   77   3.406   1.372   4.714  0.8269 -1.7949  1.2285
    1DOPC  H14S   78   3.529   1.494   4.670  0.1693  0.2498 -0.9199
    1DOPC  C215   79   3.611   1.314   4.758 -0.2870 -0.2640  0.0864
    1DOPC  H15R   80   3.701   1.313   4.693 -1.0355  0.1117 -0.9927
    1DOPC  H15S   81   3.574   1.216   4.795 -3.0288  1.3363  1.9481
    1DOPC  C216   82   3.633   1.390   4.888 -0.5916  0.0746  0.7679
    1DOPC  H16R   83   3.542   1.431   4.936  0.0718 -1.3938  3.5041
    1DOPC  H16S   84   3.698   1.477   4.867 -0.6767 -0.2032 -0.7527
    1DOPC  C217   85   3.709   1.295   4.983  0.1526  0.2647 -0.0269
    1DOPC  H17R   86   3.730   1.344   5.080 -1.5041  0.4446  0.2734
    1DOPC  H17S   87   3.811   1.282   4.939 -0.2280  1.1296 -1.2293
    1DOPC  C218   88   3.642   1.169   5.028 -0.1961 -0.2740  0.1624
    1DOPC  H18R   89   3.685   1.131   5.123  3.9602  1.0345 -0.9883
    1DOPC  H18S   90   3.663   1.092   4.951  2.2815  0.7089 -0.2534
    1DOPC  H18T   91   3.533   1.168   5.049  0.1921  2.1435  3.0730
    1DOPC   C33   92   2.675   1.224   4.641  0.9300  0.1817  0.1559
    1DOPC   H3X   93   2.632   1.319   4.679 -0.4496  0.9367 -2.9385
    1DOPC   H3Y   94   2.615   1.180   4.558  2.0270 -2.3073  0.5707
    1DOPC   C34   95   2.824   1.224   4.601 -0.4668 -0.2977  0.6927
    1DOPC   H4X   96   2.849   1.138   4.535 -0.7482  0.5272 -0.5214
    1DOPC   H4Y   97   2.883   1.236   4.694 -2.0520  2.3401  1.4813
    1DOPC   C35   98   2.852   1.350   4.518  0.2686 -0.1795 -0.4319
    1DOPC   H5X   99   2.866   1.438   4.585 -1.1208  0.2083 -0.6215
    1DOPC   H5Y  100   2.763   1.383   4.461 -0.2017 -0.0240  0.3810
    1DOPC   C36  101   2.978   1.331   4.427  0.3705 -0.3609  1.0664
    1DOPC   H6X  102   3.067   1.295   4.484  0.8272 -0.0740  0.5426
    1DOPC   H6Y  103   2.957   1.252   4.352 -0.4368  1.4167 -0.6454
    1DOPC   C37  104   3.021   1.462   4.357 -0.0482 -1.2431  0.3524
    1DOPC   H7X  105   2.945   1.503   4.287  1.5120 -0.9079 -1.2208
    1DOPC   H7Y  106   3.034   1.538   4.437  2.0693  0.0820 -1.1451
    1DOPC   C38  107   3.152   1.446   4.271 -0.4266 -0.5924 -0.2344
    1DOPC   H8X  108   3.232   1.392   4.326  0.3286 -1.5719 -2.1694
    1DOPC   H8Y  109   3.196   1.545   4.249 -1.6363  1.2988  4.5818
    1DOPC   C39  110   3.126   1.381   4.139 -0.5979 -0.1701 -1.0117
    1DOPC   H9X  111   3.020   1.381   4.110 -1.0262 -2.0006  0.3347
    1DOPC  C310  112   3.219   1.351   4.047  0.5437  0.4908  0.2302
    1DOPC  H10X  113   3.185   1.308   3.951 -0.5672  2.4810 -0.3241
    1DOPC  C311  114   3.362   1.377   4.067 -0.4832  0.6573 -0.2753
    1DOPC  H11X  115   3.408   1.278   4.044  0.5009  0.8778  0.6593
    1DOPC  H11Y  116   3.391   1.398   4.172  2.3416 -1.7555 -0.4404
    1DOPC  C312  117   3.423   1.480   3.976 -1.0050 -0.1362  0.1337
    1DOPC  H12X  118   3.429   1.469   3.865 -0.2172  2.3292 -0.1187
    1DOPC  H12Y  119   3.531   1.488   4.001 -0.3705  0.9164 -2.5718
    1DOPC  C313  120   3.375   1.621   4.012 -0.1623  0.1224  0.2392
    1DOPC  H13X  121   3.271   1.630   3.973 -0.2237 -2.5223 -0.4399
    1DOPC  H13Y  122   3.379   1.623   4.123  2.7275 -1.4670  0.2760
    1DOPC  C314  123   3.474   1.728   3.972 -0.8581 -0.1221  0.1621
    1DOPC  H14X  124   3.574   1.709   4.015 -0.1735 -0.1417 -1.3630
    1DOPC  H14Y  125   3.489   1.722   3.862  0.4236 -0.9625  0.3625
    1DOPC  C315  126   3.431   1.875   4.007  0.3640 -0.1037  0.2209
    1DOPC  H15X  127   3.408   1.873   4.115  0.1306 -0.8179  0.1626
    1DOPC  H15Y  128   3.337   1.900   3.954 -0.3298 -0.5521  1.2069
    1DOPC  C316  129   3.535   1.988   3.971  0.8290  0.5978 -0.1053
    1DOPC  H16X  130   3.616   1.967   4.045 -2.1796 -0.1552  3.2325
    1DOPC  H16Y  131   3.556   1.983   3.862 -1.8487  1.7354 -0.7452
    1DOPC  C317  132   3.487   2.126   4.013  0.1364 -0.5774  0.0695
    1DOPC  H17X  133   3.390   2.151   3.964 -0.8832 -1.9847  1.2646
    1DOPC  H17Y  134   3.477   2.131   4.124 -0.2766 -0.0294  0.0153
    1DOPC  C318  135   3.601   2.224   3.963  0.2440 -0.5074 -0.2457
    1DOPC  H18X  136   3.620   2.230   3.854 -0.3269  1.4786 -0.2760
    1DOPC  H18Y  137   3.552   2.321   3.985 -0.4535 -1.2683  1.7630
    1DOPC  H18Z  138   3.693   2.216   4.025 -0.6054  0.3243  1.1841
    2DOPC     N  139   0.479   2.652   6.004  0.2328  0.3364 -0.0391
    2DOPC   C12  140   0.561   2.525   5.993 -0.1174  0.2004 -0.1872
    2DOPC  H12A  141   0.505   2.443   5.951 -0.1211  0.4027 -0.5857
    2DOPC  H12B  142   0.599   2.502   6.091  2.8330  1.0101 -1.0380
    2DOPC   C13  143   0.451   2.692   5.865  0.6185 -0.4234  0.0490
    2DOPC  H13A  144   0.542   2.731   5.822  0.6945 -1.2640 -0.5890
    2DOPC  H13B  145   0.407   2.614   5.804  1.1266  0.9436 -2.1787
    2DOPC  H13C  146   0.383   2.775   5.875  0.8825 -0.0213 -1.2551
    2DOPC   C14  147   0.553   2.764   6.072 -0.5705 -0.3357 -0.3443
    2DOPC  H14A  148   0.591   2.727   6.166 -0.8255 -1.3166 -0.6211
    2DOPC  H14B  149   0.638   2.795   6.014 -1.1588  0.0312 -1.0196
    2DOPC  H14C  150   0.496   2.854   6.090 -0.2389  0.1384 -1.5518
    2DOPC   C15  151   0.354   2.617   6.078  0.1612 -0.4937 -0.2897
    2DOPC  H15A  152   0.281   2.695   6.093 -0.1308 -0.8430  0.1056
    2DOPC  H15B  153   0.381   2.589   6.179  2.3804  0.2760 -0.6147
    2DOPC  H15C  154   0.305   2.528   6.042  0.2417 -0.9293  0.6403
    2DOPC   C11  155   0.692   2.530   5.902  0.3200 -0.3442  0.0197
    2DOPC  H11A  156   0.728   2.427   5.881  2.1414  0.0004  1.2188
    2DOPC  H11B  157   0.659   2.558   5.800 -1.4442 -0.7804  0.4357
    2DOPC     P  158   0.878   2.710   5.889  0.0481 -0.3213 -0.2684
    2DOPC   O13  159   0.944   2.651   5.772 -0.2195 -0.0216 -0.6486
    2DOPC   O14  160   0.962   2.785   5.983 -0.4322 -0.2851 -0.1416
    2DOPC   O12  161   0.795   2.601   5.963 -0.1648  0.0740 -0.1605
    2DOPC   O11  162   0.759   2.800   5.843 -0.3722 -0.2371 -0.8030
    2DOPC    C1  163   0.775   2.925   5.769  0.3285  0.4840  0.4189
    2DOPC    HA  164   0.873   2.938   5.718 -0.5197  0.9041 -1.1846
    2DOPC    HB  165   0.757   3.012   5.836  2.0555  0.1505  1.3583
    2DOPC    C2  166   0.665   2.920   5.654 -0.1482  0.6698  0.2858
    2DOPC    HS  167   0.574   2.899   5.714  1.3849 -0.0460  2.4863
    2DOPC   O21  168   0.681   2.804   5.567 -0.1003 -0.3488 -0.5237
    2DOPC   C21  169   0.577   2.762   5.502 -0.1422  0.0462  0.3508
    2DOPC   O22  170   0.463   2.794   5.521 -0.3288  0.3850  0.3397
    2DOPC   C22  171   0.614   2.639   5.416 -0.1268 -0.4200 -0.2795
    2DOPC   H2R  172   0.517   2.585   5.405 -0.6053  0.7625 -2.3579
    2DOPC   H2S  173   0.686   2.576   5.472 -1.7375 -1.7428  0.4130
    2DOPC    C3  174   0.665   3.051   5.573  0.1144 -0.7037 -0.2102
    2DOPC    HX  175   0.757   3.060   5.512  0.0488  1.1130 -0.1026
    2DOPC    HY  176   0.704   3.142   5.623 -0.5145 -0.1075 -0.7711
    2DOPC   O31  177   0.547   3.070   5.493 -0.3677 -0.6442 -0.1369
    2DOPC   C31  178   0.463   3.145   5.559  0.2569 -0.0002 -0.0179
    2DOPC   O32  179   0.472   3.171   5.682 -0.4234  0.1318  0.1294
    2DOPC   C32  180   0.348   3.189   5.470 -0.5372  0.2604 -0.6658
    2DOPC   H2X  181   0.307   3.277   5.524 -0.0949 -0.1109  0.3009
    2DOPC   H2Y  182   0.378   3.218   5.367 -0.4583 -2.7738 -1.5913
    2DOPC   C23  183   0.665   2.669   5.276  0.2529  0.1004 -0.3975
    2DOPC   H3R  184   0.771   2.637   5.279  0.5514  1.1251  2.0564
    2DOPC   H3S  185   0.666   2.779   5.259 -1.0411  0.2719  0.4461
    2DOPC   C24  186   0.573   2.616   5.163  0.7173 -0.0543  0.1804
    2DOPC   H4R  187   0.474   2.665   5.175  0.8551  0.8637 -1.9228
    2DOPC   H4S  188   0.549   2.511   5.190 -1.9236  1.3007  3.8980
    2DOPC   C25  189   0.634   2.654   5.026 -0.4298  0.2023  0.5041
    2DOPC   H5R  190   0.737   2.615   5.013 -0.8820 -0.4138 -1.5680
    2DOPC   H5S  191   0.648   2.761   5.001  1.6620 -0.6427 -2.4526
    2DOPC   C26  192   0.559   2.570   4.924 -0.3394 -0.0756  0.0635
    2DOPC   H6R  193   0.457   2.614   4.918 -1.1670 -1.6919  1.4162
    2DOPC   H6S  194   0.554   2.464   4.958  0.5259  0.1786  1.0312
    2DOPC   C27  195   0.620   2.562   4.783 -0.3999 -0.3077 -0.5975
    2DOPC   H7R  196   0.564   2.489   4.721  0.5962 -1.8688  0.2873
    2DOPC   H7S  197   0.720   2.514   4.774 -1.8607 -4.2902  1.5524
    2DOPC   C28  198   0.625   2.695   4.703  0.1262 -0.0230  0.0629
    2DOPC   H8R  199   0.702   2.758   4.752 -0.5447  1.1606 -0.3621
    2DOPC   H8S  200   0.527   2.748   4.703  0.4407  0.5752  0.6271
    2DOPC   C29  201   0.670   2.676   4.564 -0.2416 -0.0751 -1.1799
    2DOPC   H9R  202   0.742   2.594   4.548 -1.3516 -1.1785 -0.7348
    2DOPC  C210  203   0.620   2.729   4.449 -0.2953  0.8216  0.2225
    2DOPC  H10R  204   0.665   2.700   4.353  2.2107 -0.5850  1.7290
    2DOPC  C211  205   0.508   2.819   4.432 -0.0562 -1.0746  0.2739
    2DOPC  H11R  206   0.501   2.872   4.335 -0.9309  0.3945  1.0965
    2DOPC  H11S  207   0.508   2.895   4.513 -0.6301 -1.1462  0.3482
    2DOPC  C212  208   0.373   2.752   4.435  0.0909 -0.1686  0.5795
    2DOPC  H12R  209   0.301   2.831   4.464 -0.6868 -0.6766  0.0506
    2DOPC  H12S  210   0.368   2.680   4.519 -0.5130 -1.0702 -0.2178
    2DOPC  C213  211   0.343   2.683   4.306 -0.3669 -0.4649  0.5185
    2DOPC  H13R  212   0.429   2.620   4.276 -1.2123 -1.4017 -0.0175
    2DOPC  H13S  213   0.331   2.759   4.226 -0.8807 -0.0657  0.9665
    2DOPC  C214  214   0.216   2.600   4.314 -0.3618 -0.1982  0.3584
    2DOPC  H14R  215   0.130   2.670   4.325 -0.8043 -0.0552 -2.9403
    2DOPC  H14S  216   0.229   2.531   4.400 -1.6988 -1.8327 -0.6928
    2DOPC  C215  217   0.192   2.526   4.177  0.5380 -0.0499 -0.6257
    2DOPC  H15R  218   0.292   2.494   4.140  0.3733  0.4597 -1.5208
    2DOPC  H15S  219   0.146   2.608   4.118  0.4352  0.5859  0.3207
    2DOPC  C216  220   0.091   2.414   4.192  0.0113 -0.2915 -0.3011
    2DOPC  H16R  221   0.022   2.451   4.271  0.4732 -0.1214  0.0271
    2DOPC  H16S  222   0.138   2.322   4.233  0.9866 -0.5031 -1.8320
    2DOPC  C217  223   0.012   2.380   4.072  0.5242 -0.3062 -0.3363
    2DOPC  H17R  224  -0.025   2.472   4.022  2.0995 -0.1913 -1.3608
    2DOPC  H17S  225  -0.087   2.334   4.093 -0.0062 -0.2314 -2.4173
    2DOPC  C218  226   0.092   2.313   3.962 -0.6821 -0.7682  0.1325
    2DOPC  H18R  227   0.063   2.206   3.953  0.2181 -1.1012  0.9924
    2DOPC  H18S  228   0.199   2.306   3.991 -0.4623  0.3876 -0.3337
    2DOPC  H18T  229   0.085   2.376   3.871  1.1421  0.0737  0.5181
    2DOPC   C33  230   0.245   3.080   5.448  0.7242 -0.0450  0.1001
    2DOPC   H3X  231   0.142   3.118   5.432 -0.6983 -2.6459  2.1978
    2DOPC   H3Y  232   0.224   3.021   5.540  0.0514 -0.5743 -0.3797
    2DOPC   C34  233   0.283   2.986   5.333  0.9953  0.1545 -0.6365
    2DOPC   H4X  234   0.227   2.891   5.347  1.6742 -0.3149 -1.0414
    2DOPC   H4Y  235   0.391   2.960   5.338  1.2743  1.4448  0.8914
    2DOPC   C35  236   0.243   3.033   5.193 -1.3646  0.5809 -0.4721
    2DOPC   H5X  237   0.246   3.144   5.186 -1.2259  0.6551  0.7041
    2DOPC   H5Y  238   0.143   2.994   5.165 -1.2689  1.1355 -1.6892
    2DOPC   C36  239   0.342   2.986   5.085  0.1465  0.0219 -0.1817
    2DOPC   H6X  240   0.442   3.033   5.094 -0.0069  0.0674  1.8391
    2DOPC   H6Y  241   0.359   2.876   5.091 -1.1112 -0.1114  2.3387
    2DOPC   C37  242   0.292   3.016   4.942 -0.1280  0.6352 -0.2998
    2DOPC   H7X  243   0.188   2.982   4.927 -0.4179  1.0038  0.8256
    2DOPC   H7Y  244   0.286   3.126   4.929  0.8733  0.7804  0.3490
    2DOPC   C38  245   0.383   2.967   4.829  0.3557 -0.1681  0.1332
    2DOPC   H8X  246   0.383   2.856   4.826 -0.3392 -0.2425  1.6171
    2DOPC   H8Y  247   0.488   2.993   4.856  0.9006 -2.2542  0.1454
    2DOPC   C39  248   0.334   3.010   4.693  0.0643 -0.3241  0.2267
    2DOPC   H9X  249   0.236   2.968   4.666  1.4217 -4.1773  0.6094
    2DOPC  C310  250   0.394   3.101   4.614 -0.8258  0.6144  0.7301
    2DOPC  H10X  251   0.347   3.133   4.519 -0.4164 -1.2947 -0.1492
    2DOPC  C311  252   0.512   3.189   4.652 -0.0282 -0.2494  0.5726
    2DOPC  H11X  253   0.521   3.180   4.763 -3.4572  0.8941  1.0655
    2DOPC  H11Y  254   0.478   3.294   4.637  1.3056 -0.0804 -1.7663
    2DOPC  C312  255   0.640   3.171   4.574 -0.2885  0.0670 -0.3008
    2DOPC  H12X  256   0.686   3.272   4.568 -2.2965  1.0364 -0.2337
    2DOPC  H12Y  257   0.603   3.139   4.473 -1.8992  0.8809 -0.0094
    2DOPC  C313  258   0.732   3.064   4.639  0.1387 -0.0683  0.2338
    2DOPC  H13X  259   0.680   2.983   4.694 -0.2910  0.2971  0.3710
    2DOPC  H13Y  260   0.796   3.027   4.557  1.8696  0.3525  1.3344
    2DOPC  C314  261   0.817   3.117   4.750  0.1865  0.0015  0.3071
    2DOPC  H14X  262   0.899   3.182   4.711 -0.4631 -0.7309 -2.4600
    2DOPC  H14Y  263   0.753   3.177   4.819 -1.8119 -0.6475 -0.9059
    2DOPC  C315  264   0.876   2.997   4.833 -0.2398  0.0909 -0.7601
    2DOPC  H15X  265   0.945   2.942   4.766 -1.0026 -1.3262 -0.4090
    2DOPC  H15Y  266   0.786   2.937   4.856  1.1749 -1.4142  1.2345
    2DOPC  C316  267   0.960   3.041   4.951 -0.3391  0.0063 -0.5082
    2DOPC  H16X  268   1.024   2.960   4.991  1.6312  1.6964 -0.1053
    2DOPC  H16Y  269   1.030   3.123   4.924  1.2037 -1.1513 -0.0944
    2DOPC  C317  270   0.882   3.094   5.075 -0.0242  0.0080 -0.7095
    2DOPC  H17X  271   0.960   3.126   5.148  0.2484 -1.4746 -0.2975
    2DOPC  H17Y  272   0.811   3.178   5.061 -0.4483  0.1129  1.6359
    2DOPC  C318  273   0.797   2.987   5.145 -0.1107  0.1884 -0.0788
    2DOPC  H18X  274   0.845   2.890   5.122  0.3871  0.7335 -1.4231
    2DOPC  H18Y  275   0.809   3.013   5.253 -0.3152  0.6301 -0.1608
    2DOPC  H18Z  276   0.691   2.985   5.113  0.3689 -0.9245 -1.6955
    3DOPC     N  277   6.891   4.113   6.206  0.5206 -0.0732 -0.7397
    3DOPC   C12  278   6.874   4.265   6.199  0.1425 -0.3511 -0.2389
    3DOPC  H12A  279   6.939   4.307   6.275  0.9495 -1.9174 -0.0178
    3DOPC  H12B  280   6.769   4.281   6.220 -0.2943 -1.2473 -1.6190
    3DOPC   C13  281   6.802   4.045   6.108  0.1562  0.3061  0.3717
    3DOPC  H13A  282   6.827   4.075   6.008  2.0809  2.1265  1.3449
    3DOPC  H13B  283   6.809   3.938   6.124  0.5874  0.2551 -0.1523
    3DOPC  H13C  284   6.699   4.076   6.123  0.1698  1.1556 -1.1103
    3DOPC   C14  285   6.848   4.052   6.338  0.1743 -0.2706 -0.0532
    3DOPC  H14A  286   6.741   4.047   6.348  0.1081  0.9824  0.0574
    3DOPC  H14B  287   6.879   3.949   6.346  0.5801 -0.2307 -0.9758
    3DOPC  H14C  288   6.892   4.105   6.421 -3.3149  1.1625  1.0801
    3DOPC   C15  289   7.037   4.079   6.185  0.3363  0.0860  0.1786
    3DOPC  H15A  290   7.080   4.106   6.089  1.8775  0.3926  0.9300
    3DOPC  H15B  291   7.060   3.974   6.185  1.5303  0.3346  0.9265
    3DOPC  H15C  292   7.103   4.121   6.259  1.9172 -3.0209  0.7042
    3DOPC   C11  293   6.901   4.322   6.056  0.5860 -0.0017  0.3662
    3DOPC  H11A  294   6.909   4.432   6.065  0.0379  0.0583  0.1479
    3DOPC  H11B  295   7.000   4.284   6.021 -0.1046 -1.4496 -0.1255
    3DOPC     P  296   6.658   4.364   5.995  0.0489 -0.1718  0.1044
    3DOPC   O13  297   6.652   4.411   6.129  0.1562 -0.2445 -0.4866
    3DOPC   O14  298   6.538   4.284   5.961  0.8863 -0.1574 -0.8943
    3DOPC   O12  299   6.792   4.282   5.966 -0.3050 -0.5834 -0.3208
    3DOPC   O11  300   6.667   4.489   5.896  0.6837  0.1669  0.8273
    3DOPC    C1  301   6.674   4.468   5.750  0.3591  0.0400 -0.3055
    3DOPC    HA  302   6.657   4.362   5.721 -0.1301 -0.1100  0.4758
    3DOPC    HB  303   6.775   4.488   5.708  0.1843 -0.9266 -1.2446
    3DOPC    C2  304   6.562   4.555   5.679 -0.1538 -0.1751  0.4298
    3DOPC    HS  305   6.581   4.544   5.570  0.8009 -1.2538  0.6877
    3DOPC   O21  306   6.550   4.692   5.720  0.1807  0.5903 -0.6748
    3DOPC   C21  307   6.585   4.782   5.625  0.2993  0.4662  1.3894
    3DOPC   O22  308   6.627   4.754   5.514 -0.4125  0.2652 -0.4049
    3DOPC   C22  309   6.569   4.922   5.683 -0.5030  0.0485  0.3783
    3DOPC   H2R  310   6.593   4.917   5.791 -2.9115 -0.1867  0.9591
    3DOPC   H2S  311   6.461   4.946   5.682 -0.2477  1.3588  1.4558
    3DOPC    C3  312   6.427   4.488   5.696  0.6590 -0.0293  0.5181
    3DOPC    HX  313   6.353   4.555   5.647  0.0195 -0.4355  0.9033
    3DOPC    HY  314   6.398   4.477   5.803  1.4315 -0.5930  0.6748
    3DOPC   O31  315   6.420   4.360   5.631  0.1321 -0.1476 -0.2365
    3DOPC   C31  316   6.294   4.307   5.633  0.5257  0.2709  0.0665
    3DOPC   O32  317   6.198   4.358   5.684  0.3858  0.3674  0.3186
    3DOPC   C32  318   6.281   4.173   5.573 -0.3231  0.4257  0.4363
    3DOPC   H2X  319   6.271   4.176   5.463 -0.3941  0.2805  0.4385
    3DOPC   H2Y  320   6.378   4.123   5.594 -0.5937 -0.7889 -1.0219
    3DOPC   C23  321   6.654   5.012   5.600  0.6474 -0.5009 -0.3914
    3DOPC   H3R  322   6.617   5.115   5.620  1.2730 -0.5882  1.3967
    3DOPC   H3S  323   6.646   4.988   5.492  2.3339  1.4524 -1.0267
    3DOPC   C24  324   6.795   5.017   5.650 -0.1544  0.8628  0.7384
    3DOPC   H4R  325   6.848   4.919   5.658 -0.7142  0.5680  0.8348
    3DOPC   H4S  326   6.792   5.071   5.747 -0.7751  1.5780  0.3318
    3DOPC   C25  327   6.890   5.083   5.548 -0.5925  0.1280  0.3785
    3DOPC   H5R  328   6.828   5.147   5.481 -0.2654  1.0058  0.8845
    3DOPC   H5S  329   6.946   5.011   5.486  0.2089  0.1175  1.0856
    3DOPC   C26  330   6.997   5.160   5.617 -0.0016 -0.3810  0.1332
    3DOPC   H6R  331   7.050   5.097   5.692  1.1158 -1.7221 -1.7120
    3DOPC   H6S  332   6.951   5.246   5.671 -2.0054 -1.0207 -0.4511
    3DOPC   C27  333   7.107   5.209   5.520 -0.2531 -0.8609 -0.0588
    3DOPC   H7R  334   7.076   5.287   5.447 -1.4330 -2.1363 -0.9392
    3DOPC   H7S  335   7.157   5.124   5.470 -1.8061 -2.2812  0.7437
    3DOPC   C28  336   7.216   5.284   5.606 -0.2016  0.0187  0.2631
    3DOPC   H8R  337   7.267   5.221   5.682 -1.4569 -0.8867  0.3783
    3DOPC   H8S  338   7.173   5.366   5.668 -1.2708 -1.1034  1.0552
    3DOPC   C29  339   7.326   5.330   5.519 -0.1976  0.2215 -0.5801
    3DOPC   H9R  340   7.316   5.438   5.501 -1.5238  0.5302  1.6293
    3DOPC  C210  341   7.445   5.270   5.488 -0.1625 -0.5520  0.4315
    3DOPC  H10R  342   7.512   5.331   5.427  0.9303 -1.4630  0.6924
    3DOPC  C211  343   7.479   5.121   5.501  0.2517 -0.2304  0.3255
    3DOPC  H11R  344   7.394   5.053   5.524  0.5864 -0.6922  0.2133
    3DOPC  H11S  345   7.542   5.115   5.592  0.1629 -1.4067  0.3230
    3DOPC  C212  346   7.538   5.059   5.373 -0.6277  0.1409  0.2545
    3DOPC  H12R  347   7.538   4.954   5.407  0.3925  0.7818  2.4178
    3DOPC  H12S  348   7.641   5.094   5.351 -0.4314 -0.3116  0.4433
    3DOPC  C213  349   7.458   5.076   5.246  0.1204 -0.1043  0.4324
    3DOPC  H13R  350   7.470   5.183   5.222 -0.6711 -0.5699 -2.4506
    3DOPC  H13S  351   7.351   5.060   5.271 -0.3107 -0.3521 -1.4062
    3DOPC  C214  352   7.494   4.997   5.120  0.4882  0.7093  0.4926
    3DOPC  H14R  353   7.487   4.887   5.135 -0.6004  0.7629  0.4892
    3DOPC  H14S  354   7.600   5.020   5.098  0.4575  2.2698  1.7463
    3DOPC  C215  355   7.419   5.052   4.999 -0.0493 -0.6950 -0.0149
    3DOPC  H15R  356   7.405   5.161   5.009 -1.9547 -1.0013  1.2137
    3DOPC  H15S  357   7.321   5.003   4.982 -0.5525  0.0588  0.6497
    3DOPC  C216  358   7.504   5.042   4.866 -0.0049 -0.4740  0.4756
    3DOPC  H16R  359   7.597   5.101   4.881  0.2285 -0.2490 -1.5501
    3DOPC  H16S  360   7.459   5.094   4.779 -0.7406 -2.2171 -0.2184
    3DOPC  C217  361   7.551   4.905   4.805  0.4467  0.8948  0.1709
    3DOPC  H17R  362   7.635   4.862   4.863  1.8770  2.1505 -0.8726
    3DOPC  H17S  363   7.591   4.926   4.703 -1.2151  1.1557 -0.4451
    3DOPC  C218  364   7.441   4.798   4.803  0.1273 -0.6826 -0.1423
    3DOPC  H18R  365   7.425   4.750   4.902 -0.6483 -0.1233  0.0187
    3DOPC  H18S  366   7.480   4.714   4.741 -0.2315 -0.3394 -0.8555
    3DOPC  H18T  367   7.348   4.838   4.757  0.6858  0.7680 -0.0531
    3DOPC   C33  368   6.153   4.094   5.610 -0.5226 -0.3968  0.3259
    3DOPC   H3X  369   6.058   4.152   5.612 -1.0309 -1.1727  3.6404
    3DOPC   H3Y  370   6.176   4.063   5.714  5.3564 -3.0948 -1.3329
    3DOPC   C34  371   6.119   3.971   5.525  0.5152  0.1372  0.5976
    3DOPC   H4X  372   6.024   3.919   5.552  0.4183  1.6241  3.3977
    3DOPC   H4Y  373   6.208   3.905   5.538 -0.2469 -1.0570  0.0081
    3DOPC   C35  374   6.105   3.989   5.375  0.8254 -0.3385 -0.0536
    3DOPC   H5X  375   6.186   4.040   5.320  0.1576 -0.8609 -1.5683
    3DOPC   H5Y  376   6.011   4.045   5.355  0.8655 -0.6082 -1.0221
    3DOPC   C36  377   6.114   3.846   5.301  0.2239 -0.1315  0.0432
    3DOPC   H6X  378   6.218   3.808   5.315 -0.0292 -1.2807 -0.9694
    3DOPC   H6Y  379   6.043   3.780   5.356 -0.7956  0.0280 -1.0363
    3DOPC   C37  380   6.072   3.838   5.153 -0.0472 -0.3461  0.5522
    3DOPC   H7X  381   5.978   3.897   5.150  0.7835  1.0137 -2.2883
    3DOPC   H7Y  382   6.140   3.900   5.090  0.6635 -3.3831 -1.9169
    3DOPC   C38  383   6.051   3.691   5.104  0.6180 -0.0259 -0.3639
    3DOPC   H8X  384   5.973   3.643   5.167 -0.0202  3.4790  1.8128
    3DOPC   H8Y  385   6.144   3.632   5.122  1.1418  0.9082  0.0684
    3DOPC   C39  386   6.023   3.672   4.953  0.1559  0.0264  0.4561
    3DOPC   H9X  387   5.990   3.758   4.894  0.0527 -2.6302 -3.8674
    3DOPC  C310  388   6.043   3.556   4.880 -0.0430 -0.0908 -0.1026
    3DOPC  H10X  389   6.026   3.571   4.772  3.5412  3.6303 -0.4107
    3DOPC  C311  390   6.090   3.420   4.935 -0.1321 -0.1212  0.0711
    3DOPC  H11X  391   6.138   3.426   5.035  0.5754 -1.6205 -0.1384
    3DOPC  H11Y  392   6.164   3.361   4.877 -0.4931 -0.0103 -0.5149
    3DOPC  C312  393   5.975   3.322   4.958 -0.1653  0.5480 -0.0802
    3DOPC  H12X  394   5.927   3.285   4.865  1.8745 -1.2617 -0.5003
    3DOPC  H12Y  395   5.905   3.374   5.026  1.8088 -0.3894  2.8945
    3DOPC  C313  396   6.018   3.196   5.034  0.0211 -0.0106  0.3044
    3DOPC  H13X  397   6.050   3.127   4.952 -1.4570 -1.0336  0.5382
    3DOPC  H13Y  398   6.114   3.213   5.088  1.0598 -0.3719 -1.3438
    3DOPC  C314  399   5.900   3.129   5.116 -0.7422  0.1439  0.8027
    3DOPC  H14X  400   5.942   3.035   5.157  1.6556  0.4883 -0.6740
    3DOPC  H14Y  401   5.875   3.199   5.199  0.9966  1.8197 -0.0158
    3DOPC  C315  402   5.774   3.096   5.038 -0.6316 -0.3605 -0.7512
    3DOPC  H15X  403   5.818   3.058   4.944  1.0086  0.7328 -0.4708
    3DOPC  H15Y  404   5.718   3.189   5.013  0.1542  0.0966 -0.8703
    3DOPC  C316  405   5.684   2.993   5.115  0.5808 -0.0571  0.0454
    3DOPC  H16X  406   5.732   2.893   5.120 -0.6992 -0.6851  0.1206
    3DOPC  H16Y  407   5.670   3.031   5.218 -1.2512 -0.5315  0.0134
    3DOPC  C317  408   5.544   2.969   5.050 -0.3337 -0.0819  0.3086
    3DOPC  H17X  409   5.489   3.066   5.057 -2.3236 -1.0943 -0.5258
    3DOPC  H17Y  410   5.571   2.940   4.946 -0.1145 -2.8435  1.0542
    3DOPC  C318  411   5.469   2.853   5.113  0.1659 -0.1965 -0.5367
    3DOPC  H18X  412   5.392   2.808   5.047 -0.4919 -1.7677  1.2021
    3DOPC  H18Y  413   5.545   2.775   5.139 -1.1864 -1.1417  0.7469
    3DOPC  H18Z  414   5.412   2.877   5.205  0.1467 -2.0614 -0.0077
    4DOPC     N  415   3.556   2.540   5.473 -0.1666  0.1789 -0.2377
    4DOPC   C12  416   3.648   2.428   5.423 -1.0295 -0.3910  0.8090
    4DOPC  H12A  417   3.616   2.388   5.328  2.7969  2.7148 -2.0943
    4DOPC  H12B  418   3.645   2.348   5.496  0.5486  1.6125  3.2032
    4DOPC   C13  419   3.602   2.592   5.606 -0.1545  0.3646  0.3167
    4DOPC  H13A  420   3.707   2.619   5.610  0.4108 -1.7900  3.1931
    4DOPC  H13B  421   3.539   2.671   5.644 -0.6842 -0.0838  0.3933
    4DOPC  H13C  422   3.591   2.508   5.674 -3.4546  0.5775  0.1998
    4DOPC   C14  423   3.414   2.487   5.476 -0.6918  0.1306 -0.1228
    4DOPC  H14A  424   3.370   2.480   5.378 -0.8108  1.4605 -0.1796
    4DOPC  H14B  425   3.417   2.393   5.529  0.3468 -0.9275 -1.9332
    4DOPC  H14C  426   3.349   2.558   5.525 -0.3718 -0.3590  1.0653
    4DOPC   C15  427   3.560   2.656   5.382  0.9113 -0.3157  0.5121
    4DOPC  H15A  428   3.655   2.693   5.348  0.1418 -1.5495 -3.6407
    4DOPC  H15B  429   3.503   2.739   5.422  1.2024  0.6351 -0.9563
    4DOPC  H15C  430   3.517   2.638   5.284  1.6022  0.0714  0.1335
    4DOPC   C11  431   3.792   2.468   5.390  0.6772 -0.2457  0.4228
    4DOPC  H11A  432   3.839   2.376   5.349  1.8203 -0.4396  2.0816
    4DOPC  H11B  433   3.792   2.538   5.304 -1.9537  0.1561  0.6731
    4DOPC     P  434   3.929   2.424   5.602 -0.1246 -0.1141  0.1130
    4DOPC   O13  435   3.815   2.336   5.633 -0.3646  0.5341 -0.3177
    4DOPC   O14  436   4.003   2.498   5.705 -0.3021 -0.3004 -0.8366
    4DOPC   O12  437   3.868   2.529   5.496 -0.4020 -0.7714 -0.2689
    4DOPC   O11  438   4.043   2.348   5.519 -0.3208 -0.2340 -0.2359
    4DOPC    C1  439   4.169   2.409   5.487  0.1903  0.1784 -0.1952
    4DOPC    HA  440   4.260   2.346   5.484  1.4484  1.6599  2.7776
    4DOPC    HB  441   4.185   2.488   5.564  0.4671 -1.1620  1.1750
    4DOPC    C2  442   4.151   2.485   5.354 -0.2020 -0.2283  0.6249
    4DOPC    HS  443   4.051   2.534   5.354 -1.0384 -1.8534  0.0263
    4DOPC   O21  444   4.159   2.379   5.258  0.3750  0.0052 -0.2309
    4DOPC   C21  445   4.092   2.407   5.153  0.7097 -0.3930  0.7534
    4DOPC   O22  446   4.001   2.488   5.134  0.0377  0.1454 -0.1246
    4DOPC   C22  447   4.136   2.317   5.041 -0.6863  0.0103 -0.9503
    4DOPC   H2R  448   4.048   2.271   4.993 -0.6826 -0.1226 -0.8278
    4DOPC   H2S  449   4.193   2.229   5.077  1.1258  1.3259 -0.3986
    4DOPC    C3  450   4.271   2.587   5.344  0.0720  0.6673  0.7635
    4DOPC    HX  451   4.369   2.535   5.343  0.1629  0.6090 -2.8580
    4DOPC    HY  452   4.256   2.650   5.434 -2.3675  1.0182  0.2000
    4DOPC   O31  453   4.274   2.673   5.226 -0.1354  0.4444  0.4755
    4DOPC   C31  454   4.194   2.785   5.221 -0.3246  0.0855  0.3930
    4DOPC   O32  455   4.126   2.821   5.312  0.2378  0.1046  0.1118
    4DOPC   C32  456   4.211   2.856   5.089  0.0014 -0.6708 -0.4922
    4DOPC   H2X  457   4.187   2.960   5.120 -0.3568 -0.2109 -2.2130
    4DOPC   H2Y  458   4.320   2.857   5.066  0.1318 -0.6532  0.1046
    4DOPC   C23  459   4.232   2.386   4.942 -0.6390  0.2953 -0.1176
    4DOPC   H3R  460   4.330   2.411   4.988 -0.3168 -0.9960 -0.0464
    4DOPC   H3S  461   4.195   2.484   4.907  0.6128  1.3277  1.3292
    4DOPC   C24  462   4.272   2.305   4.817 -0.8105 -0.2434 -0.5916
    4DOPC   H4R  463   4.336   2.220   4.848 -2.1077 -1.2020 -0.4406
    4DOPC   H4S  464   4.332   2.370   4.751 -0.3864 -0.1484 -0.1115
    4DOPC   C25  465   4.168   2.240   4.723 -0.4873 -1.0427 -0.5613
    4DOPC   H5R  466   4.111   2.321   4.672 -1.4788 -0.8301  0.8328
    4DOPC   H5S  467   4.096   2.203   4.799  0.8274  0.3109  1.4047
    4DOPC   C26  468   4.209   2.127   4.640  0.5121  0.2468  0.3440
    4DOPC   H6R  469   4.275   2.057   4.696  2.4943  1.3947 -0.4406
    4DOPC   H6S  470   4.266   2.165   4.552 -0.8896 -0.4328 -0.9168
    4DOPC   C27  471   4.092   2.047   4.585 -0.2395 -0.5720  0.1630
    4DOPC   H7R  472   4.136   1.978   4.510  1.1127 -0.0196  0.4277
    4DOPC   H7S  473   4.019   2.116   4.537  0.5452 -0.4749 -0.9368
    4DOPC   C28  474   4.019   1.964   4.695 -0.1875  0.5292 -0.1873
    4DOPC   H8R  475   3.977   2.026   4.777  0.3092 -0.8979  1.2003
    4DOPC   H8S  476   4.090   1.895   4.746  0.0928  1.7404  1.1546
    4DOPC   C29  477   3.913   1.891   4.635  0.8194  0.5550 -0.1311
    4DOPC   H9R  478   3.814   1.938   4.648  0.8984  0.4804  0.7633
    4DOPC  C210  479   3.919   1.772   4.568  0.8116 -0.4328 -0.2396
    4DOPC  H10R  480   3.830   1.731   4.517  1.7276 -1.3923 -1.1116
    4DOPC  C211  481   4.046   1.693   4.538  0.6532 -0.0956 -0.4383
    4DOPC  H11R  482   4.032   1.600   4.597 -1.1738  0.5148  0.1723
    4DOPC  H11S  483   4.144   1.730   4.573 -0.2652 -0.1531  2.5219
    4DOPC  C212  484   4.069   1.658   4.390 -0.6589  0.8140 -0.2314
    4DOPC  H12R  485   4.112   1.748   4.340  0.3018 -0.4016 -1.6922
    4DOPC  H12S  486   3.982   1.609   4.342  0.0163 -1.8883  1.1021
    4DOPC  C213  487   4.178   1.547   4.381  0.7868  0.2240  0.7998
    4DOPC  H13R  488   4.141   1.449   4.421  1.2635  0.1436  1.0518
    4DOPC  H13S  489   4.273   1.572   4.433  0.3071  1.8209  0.9583
    4DOPC  C214  490   4.199   1.496   4.236  0.1829  0.1173 -0.1455
    4DOPC  H14R  491   4.219   1.574   4.160 -0.9674  0.1478 -0.4256
    4DOPC  H14S  492   4.097   1.467   4.204 -0.5338  1.3875  0.8880
    4DOPC  C215  493   4.296   1.380   4.237  0.3506  0.9188  0.5020
    4DOPC  H15R  494   4.256   1.303   4.306  3.2757 -2.8682 -1.6294
    4DOPC  H15S  495   4.398   1.400   4.276 -0.1067  0.7228  1.8303
    4DOPC  C216  496   4.326   1.306   4.105  0.1739  0.1778  1.3665
    4DOPC  H16R  497   4.437   1.297   4.100  0.1464  0.4083 -0.1878
    4DOPC  H16S  498   4.304   1.367   4.015  1.5055 -0.0034  0.9010
    4DOPC  C217  499   4.263   1.165   4.099 -0.6453  0.5621  0.4499
    4DOPC  H17R  500   4.154   1.189   4.099 -0.6783  0.4781 -0.8035
    4DOPC  H17S  501   4.306   1.119   4.191 -0.2166 -1.4610 -0.7177
    4DOPC  C218  502   4.304   1.072   3.982  0.4983 -0.1503 -0.3721
    4DOPC  H18R  503   4.283   1.124   3.886 -0.1086  0.0719 -0.1288
    4DOPC  H18S  504   4.237   0.984   3.986  0.0414  0.2045  0.0680
    4DOPC  H18T  505   4.410   1.042   3.990  0.1322 -1.3160  0.2642
    4DOPC   C33  506   4.122   2.817   4.970 -0.1176  0.4897 -0.6229
    4DOPC   H3X  507   4.018   2.801   5.004  0.4991  0.2009  1.2554
    4DOPC   H3Y  508   4.168   2.722   4.935 -3.6899 -1.7427  0.2987
    4DOPC   C34  509   4.129   2.915   4.856 -0.4559 -1.0651  0.1443
    4DOPC   H4X  510   4.236   2.939   4.840  0.0398 -0.6622  3.4002
    4DOPC   H4Y  511   4.074   3.008   4.884  0.4102 -0.3756 -0.4243
    4DOPC   C35  512   4.045   2.862   4.734  0.5082  0.4276  0.5775
    4DOPC   H5X  513   4.053   2.929   4.646  0.5236  4.1121  3.1576
    4DOPC   H5Y  514   3.937   2.846   4.758  1.2793 -2.6035  2.6677
    4DOPC   C36  515   4.093   2.718   4.690  0.3471  0.2438  0.0825
    4DOPC   H6X  516   4.202   2.718   4.672  0.4977 -0.5009  0.9162
    4DOPC   H6Y  517   4.061   2.645   4.767 -1.9041  1.5301  0.4743
    4DOPC   C37  518   4.023   2.681   4.565  0.3352  0.0217  0.0130
    4DOPC   H7X  519   3.913   2.679   4.583  0.8196 -1.7243  3.4264
    4DOPC   H7Y  520   4.047   2.764   4.494 -0.9311 -1.7302 -2.6357
    4DOPC   C38  521   4.073   2.548   4.516  0.1095 -0.5177 -0.6675
    4DOPC   H8X  522   4.020   2.469   4.572 -0.3468  1.0183  1.1369
    4DOPC   H8Y  523   4.179   2.536   4.548 -0.0727  0.7304  0.4803
    4DOPC   C39  524   4.059   2.523   4.370  0.2781 -0.0596  0.9356
    4DOPC   H9X  525   4.011   2.426   4.349 -0.4718  0.7540 -1.4481
    4DOPC  C310  526   4.123   2.585   4.271  0.0030 -0.7139 -0.4390
    4DOPC  H10X  527   4.114   2.551   4.166 -0.9608  1.4370 -1.1212
    4DOPC  C311  528   4.222   2.704   4.283  0.5030  0.0989  0.2803
    4DOPC  H11X  529   4.309   2.693   4.216 -0.5154 -1.0154 -0.8965
    4DOPC  H11Y  530   4.260   2.717   4.386  1.7859  1.7720 -0.3667
    4DOPC  C312  531   4.159   2.843   4.254 -0.6574  0.1311  0.2890
    4DOPC  H12X  532   4.234   2.916   4.291  2.0733 -2.3293 -0.0358
    4DOPC  H12Y  533   4.066   2.864   4.311 -1.3744 -1.2131 -0.3416
    4DOPC  C313  534   4.139   2.861   4.099 -0.8472 -0.6218 -0.7596
    4DOPC  H13X  535   4.233   2.847   4.041 -1.1311 -1.0844 -1.1193
    4DOPC  H13Y  536   4.085   2.773   4.058  1.6183 -1.3452 -2.7048
    4DOPC  C314  537   4.074   2.986   4.043  0.3101  0.2691  0.1707
    4DOPC  H14X  538   3.972   2.998   4.084  0.3805 -0.4787  0.5842
    4DOPC  H14Y  539   4.120   3.071   4.098 -1.6560  0.9253  0.8948
    4DOPC  C315  540   4.075   3.000   3.892 -0.6247  0.6722  0.3271
    4DOPC  H15X  541   4.005   2.924   3.852  0.1411 -1.3912  2.6330
    4DOPC  H15Y  542   4.176   2.977   3.852 -1.2409  1.4813 -1.7814
    4DOPC  C316  543   4.050   3.146   3.846 -0.0252  0.0375 -0.0927
    4DOPC  H16X  544   3.947   3.173   3.878 -0.4485 -0.9759 -0.5372
    4DOPC  H16Y  545   4.130   3.208   3.892 -0.4982 -0.2833  1.2060
    4DOPC  C317  546   4.048   3.155   3.693 -0.1446 -0.4865 -0.3366
    4DOPC  H17X  547   4.036   3.264   3.672 -1.1969 -0.6379 -0.5776
    4DOPC  H17Y  548   4.147   3.127   3.651  0.9984  0.8580  1.3328
    4DOPC  C318  549   3.945   3.072   3.631 -0.1316 -0.3876 -0.2275
    4DOPC  H18X  550   3.970   2.964   3.631 -0.2865 -0.4569 -1.8028
    4DOPC  H18Y  551   3.851   3.085   3.689  0.6130  0.3847  0.8260
    4DOPC  H18Z  552   3.917   3.103   3.528 -0.1619 -1.5089 -0.5699
    5DOPC     N  553   7.092   0.175   5.760 -0.5793 -0.0910  0.8679
    5DOPC   C12  554   6.949   0.199   5.727 -0.7421  0.2621 -0.1299
    5DOPC  H12A  555   6.881   0.123   5.763  0.6412 -2.1699 -2.3344
    5DOPC  H12B  556   6.941   0.195   5.619 -0.5322  2.5846 -0.2824
    5DOPC   C13  557   7.134   0.233   5.891  0.4176 -0.0406  0.4633
    5DOPC  H13A  558   7.090   0.179   5.973 -1.3947 -0.3125 -0.6402
    5DOPC  H13B  559   7.241   0.215   5.892 -0.0518 -3.6689  2.9094
    5DOPC  H13C  560   7.112   0.338   5.897  0.6196 -0.0700  2.1610
    5DOPC   C14  561   7.173   0.247   5.647  0.1223  0.2447  0.5405
    5DOPC  H14A  562   7.148   0.208   5.549 -1.4176  0.5298  0.7995
    5DOPC  H14B  563   7.130   0.345   5.633  0.9169  0.2151 -3.5135
    5DOPC  H14C  564   7.280   0.253   5.661  0.1193  3.7173 -0.0242
    5DOPC   C15  565   7.125   0.030   5.745 -0.3958  0.2481 -0.1790
    5DOPC  H15A  566   7.058  -0.011   5.671 -0.1132  3.1159 -2.1881
    5DOPC  H15B  567   7.095  -0.024   5.834 -2.6301 -0.2617 -1.1750
    5DOPC  H15C  568   7.230   0.017   5.725 -0.6038 -0.9925 -0.5191
    5DOPC   C11  569   6.888   0.332   5.770 -0.4353  0.4177 -0.5562
    5DOPC  H11A  570   6.967   0.407   5.752 -1.1489  0.9647 -1.4801
    5DOPC  H11B  571   6.803   0.346   5.701 -2.1991 -1.9767  0.9477
    5DOPC     P  572   6.720   0.285   5.960  0.2385 -0.0333 -0.0770
    5DOPC   O13  573   6.692   0.353   6.087  0.6170 -0.0761 -0.0966
    5DOPC   O14  574   6.734   0.133   5.958 -0.6745 -0.0927 -0.2043
    5DOPC   O12  575   6.854   0.335   5.904 -0.0976  0.2093 -0.8455
    5DOPC   O11  576   6.618   0.340   5.856 -0.2021  0.0414  0.4847
    5DOPC    C1  577   6.522   0.255   5.806 -0.1553  0.0262  0.1698
    5DOPC    HA  578   6.453   0.221   5.886 -1.0062 -0.6979 -0.8407
    5DOPC    HB  579   6.573   0.172   5.753 -0.8554  1.0359 -2.2223
    5DOPC    C2  580   6.426   0.320   5.702 -0.8386  1.3819 -1.2267
    5DOPC    HS  581   6.355   0.239   5.673  0.8970 -1.3850  1.6981
    5DOPC   O21  582   6.512   0.363   5.594  0.1398  0.5796 -0.0310
    5DOPC   C21  583   6.538   0.265   5.503  0.5911  1.0678  0.3391
    5DOPC   O22  584   6.487   0.150   5.513 -0.1780  0.2321  0.5657
    5DOPC   C22  585   6.621   0.323   5.386 -0.1572 -0.4225  0.6485
    5DOPC   H2R  586   6.676   0.233   5.350 -0.7900  0.0289 -1.5746
    5DOPC   H2S  587   6.690   0.405   5.415 -0.0927  0.1530 -1.0641
    5DOPC    C3  588   6.339   0.433   5.769  0.5564 -0.1197 -0.2874
    5DOPC    HX  589   6.406   0.512   5.809 -0.9456  2.2718 -2.2498
    5DOPC    HY  590   6.279   0.378   5.844  1.4753  1.2901  1.5507
    5DOPC   O31  591   6.242   0.499   5.676 -0.1802  0.2676 -0.5859
    5DOPC   C31  592   6.286   0.599   5.609  0.8072  0.1504  0.0153
    5DOPC   O32  593   6.397   0.646   5.618  0.3587 -0.0280  0.1250
    5DOPC   C32  594   6.163   0.639   5.517  0.3645 -0.0818 -0.1545
    5DOPC   H2X  595   6.148   0.548   5.455  2.6545  0.6823 -1.9415
    5DOPC   H2Y  596   6.075   0.662   5.581  1.6457  1.9877  0.9553
    5DOPC   C23  597   6.526   0.366   5.268 -0.4090  0.5542 -0.0310
    5DOPC   H3R  598   6.461   0.280   5.239  1.4311 -0.1318 -2.3872
    5DOPC   H3S  599   6.597   0.392   5.187 -1.0179  1.4571 -0.2828
    5DOPC   C24  600   6.427   0.486   5.288  0.2368 -0.5296  0.1713
    5DOPC   H4R  601   6.476   0.585   5.297  0.4377 -0.5308 -0.8221
    5DOPC   H4S  602   6.367   0.463   5.379 -1.0074 -0.1002 -0.5110
    5DOPC   C25  603   6.318   0.502   5.181 -0.4768 -0.1988 -0.1284
    5DOPC   H5R  604   6.229   0.544   5.232 -0.5581 -0.5068 -0.0162
    5DOPC   H5S  605   6.303   0.405   5.128  0.3365 -0.3172 -0.1478
    5DOPC   C26  606   6.368   0.604   5.077  0.1103 -0.0919  0.4395
    5DOPC   H6R  607   6.452   0.556   5.023  0.9605  1.0442  0.7349
    5DOPC   H6S  608   6.414   0.696   5.118  1.4890 -0.4055 -0.3536
    5DOPC   C27  609   6.256   0.641   4.984  0.2279 -0.1975  0.2987
    5DOPC   H7R  610   6.293   0.721   4.916 -0.0671  0.1460  0.5379
    5DOPC   H7S  611   6.177   0.679   5.053  1.0803  0.7821  0.7664
    5DOPC   C28  612   6.176   0.532   4.906 -0.1617 -0.0139 -0.3760
    5DOPC   H8R  613   6.107   0.591   4.842 -0.3658  1.3451  1.0250
    5DOPC   H8S  614   6.114   0.472   4.977  0.2669 -1.5666 -1.2573
    5DOPC   C29  615   6.260   0.442   4.826 -0.8948 -0.0754  0.3190
    5DOPC   H9R  616   6.333   0.379   4.879 -0.4351  0.9316  0.9101
    5DOPC  C210  617   6.287   0.465   4.699  0.3110 -0.3803 -0.1673
    5DOPC  H10R  618   6.358   0.401   4.644 -0.2059  0.3491 -1.7241
    5DOPC  C211  619   6.222   0.567   4.605 -0.6904 -0.5291 -0.4270
    5DOPC  H11R  620   6.306   0.612   4.548  0.5205 -2.5214 -0.3392
    5DOPC  H11S  621   6.184   0.654   4.661 -0.2339  0.3421 -1.4452
    5DOPC  C212  622   6.109   0.500   4.515  0.3100 -0.4349 -0.4721
    5DOPC  H12R  623   6.036   0.442   4.575  0.3480 -0.2695 -0.2637
    5DOPC  H12S  624   6.139   0.436   4.429  0.0603  0.8608 -1.5641
    5DOPC  C213  625   6.027   0.607   4.445  0.1063 -0.6194 -0.0116
    5DOPC  H13R  626   6.002   0.693   4.511 -1.5436 -0.9162 -0.1958
    5DOPC  H13S  627   5.934   0.564   4.402 -1.3189 -0.4929  2.7207
    5DOPC  C214  628   6.105   0.675   4.336 -0.0066  0.2649  0.2583
    5DOPC  H14R  629   6.181   0.733   4.394 -0.4359 -1.9932  3.3552
    5DOPC  H14S  630   6.033   0.743   4.286  0.0985 -0.2864 -0.6678
    5DOPC  C215  631   6.169   0.588   4.219 -0.4805 -0.4084  0.7350
    5DOPC  H15R  632   6.115   0.492   4.213 -1.0625 -0.3263  3.4144
    5DOPC  H15S  633   6.273   0.562   4.248  0.3212  0.7604 -0.9155
    5DOPC  C216  634   6.182   0.668   4.091  0.4905 -0.2965 -0.5395
    5DOPC  H16R  635   6.092   0.728   4.064  0.6907  0.5912  0.6733
    5DOPC  H16S  636   6.182   0.607   3.998 -1.5803  1.1486 -1.5749
    5DOPC  C217  637   6.288   0.777   4.098 -0.1535  0.0566 -0.9128
    5DOPC  H17R  638   6.394   0.743   4.094  1.3575  3.9736  1.1896
    5DOPC  H17S  639   6.268   0.834   4.190  0.5450 -1.9821  0.5870
    5DOPC  C218  640   6.266   0.880   3.991  0.5586  0.3926  0.7880
    5DOPC  H18R  641   6.272   0.838   3.889 -0.5937  3.1596 -0.5383
    5DOPC  H18S  642   6.332   0.970   3.991  0.1314  0.7181 -0.4035
    5DOPC  H18T  643   6.162   0.919   3.993  0.5969  0.7638 -1.6859
    5DOPC   C33  644   6.198   0.756   5.436  0.0832 -0.4478 -0.1955
    5DOPC   H3X  645   6.137   0.753   5.343 -2.3451  2.0036  1.1737
    5DOPC   H3Y  646   6.299   0.778   5.396 -0.0145 -2.0050 -1.3929
    5DOPC   C34  647   6.142   0.885   5.502  0.9160  0.0930 -0.9519
    5DOPC   H4X  648   6.157   0.877   5.612 -2.9837 -0.0180 -0.2632
    5DOPC   H4Y  649   6.031   0.885   5.490  0.8449  0.2457 -0.3075
    5DOPC   C35  650   6.200   1.014   5.451  0.1278  0.9097  0.0859
    5DOPC   H5X  651   6.304   1.017   5.487  0.5787 -2.2750 -0.6675
    5DOPC   H5Y  652   6.163   1.104   5.505 -1.0492  0.2536  0.4088
    5DOPC   C36  653   6.193   1.036   5.299  0.1198 -0.3232 -0.3722
    5DOPC   H6X  654   6.245   1.131   5.277  1.8316 -0.5760  2.1768
    5DOPC   H6Y  655   6.244   0.954   5.244 -2.1551 -2.6707  0.7700
    5DOPC   C37  656   6.046   1.032   5.246 -0.2597  0.2867 -0.3965
    5DOPC   H7X  657   5.995   0.935   5.260 -1.8824  0.9819 -1.2602
    5DOPC   H7Y  658   5.998   1.108   5.311  0.3929  0.2746  0.1132
    5DOPC   C38  659   6.020   1.060   5.099 -0.0521 -0.3354  0.6892
    5DOPC   H8X  660   5.916   1.031   5.072 -0.4392  1.9328 -0.5254
    5DOPC   H8Y  661   6.090   0.995   5.043 -2.6902 -1.6942 -1.2110
    5DOPC   C39  662   6.050   1.212   5.073 -0.3196  0.1112 -0.3462
    5DOPC   H9X  663   6.148   1.233   5.119  1.0450 -0.7480 -2.6576
    5DOPC  C310  664   5.982   1.309   5.000  0.3927  0.1779  0.5102
    5DOPC  H10X  665   6.025   1.410   5.000  2.6522 -0.6587 -1.8323
    5DOPC  C311  666   5.850   1.289   4.918 -0.1319 -0.3166 -0.5937
    5DOPC  H11X  667   5.774   1.353   4.968  0.4253  0.8956 -1.2513
    5DOPC  H11Y  668   5.815   1.184   4.917  2.0640 -1.1714  1.9457
    5DOPC  C312  669   5.871   1.340   4.773  0.3460  0.0924 -0.8234
    5DOPC  H12X  670   5.933   1.263   4.722 -0.3073 -0.2276 -1.1551
    5DOPC  H12Y  671   5.923   1.438   4.773  0.8977 -0.1641  1.1513
    5DOPC  C313  672   5.735   1.355   4.697 -0.2081  0.2675  0.5336
    5DOPC  H13X  673   5.688   1.255   4.686  0.0928  0.2179 -0.3066
    5DOPC  H13Y  674   5.666   1.426   4.748 -1.7503 -1.9709  1.7084
    5DOPC  C314  675   5.752   1.410   4.562 -0.1003 -0.0842 -0.3947
    5DOPC  H14X  676   5.661   1.427   4.501 -0.1845 -2.7430 -1.1179
    5DOPC  H14Y  677   5.812   1.503   4.576  0.9454 -0.6679 -0.8920
    5DOPC  C315  678   5.828   1.311   4.464  0.1534  0.3297 -0.9546
    5DOPC  H15X  679   5.808   1.202   4.472 -1.5443  0.4977 -2.2801
    5DOPC  H15Y  680   5.935   1.322   4.490 -0.5541  0.1356  2.5561
    5DOPC  C316  681   5.796   1.345   4.319  0.3197  0.6693  0.6912
    5DOPC  H16X  682   5.688   1.361   4.296 -0.4536 -3.9139  0.1598
    5DOPC  H16Y  683   5.849   1.440   4.297 -0.7169  1.1875  0.3392
    5DOPC  C317  684   5.857   1.246   4.213 -0.1696 -0.1235 -0.3882
    5DOPC  H17X  685   5.963   1.226   4.242 -1.0830 -4.3471  0.7951
    5DOPC  H17Y  686   5.812   1.147   4.237  0.4992 -0.0274  1.4077
    5DOPC  C318  687   5.841   1.295   4.075  0.0830 -0.0352  0.7624
    5DOPC  H18X  688   5.737   1.323   4.046  0.4955  0.8553  0.0757
    5DOPC  H18Y  689   5.912   1.379   4.061 -0.4065  0.3701  0.6515
    5DOPC  H18Z  690   5.867   1.211   4.007  1.4003  0.2341  0.9135
    6DOPC     N  691   1.288   6.454   5.619 -0.1834 -0.2106  0.2646
    6DOPC   C12  692   1.194   6.569   5.669 -0.0256 -0.6839  0.4593
    6DOPC  H12A  693   1.140   6.605   5.583  1.6146 -0.3241 -0.4682
    6DOPC  H12B  694   1.260   6.648   5.703  1.1083 -0.6499 -1.6581
    6DOPC   C13  695   1.213   6.338   5.554  0.1218  0.8953  0.5406
    6DOPC  H13A  696   1.281   6.257   5.533  1.8240  2.2259  0.6990
    6DOPC  H13B  697   1.129   6.321   5.620  0.0326  1.7479  0.6613
    6DOPC  H13C  698   1.169   6.369   5.460 -1.4775 -0.9007  0.6490
    6DOPC   C14  699   1.350   6.389   5.744 -0.0640  0.6006  0.1964
    6DOPC  H14A  700   1.264   6.355   5.798 -0.5811  0.1713 -0.8575
    6DOPC  H14B  701   1.405   6.302   5.712 -0.8757 -0.5897  1.9390
    6DOPC  H14C  702   1.413   6.457   5.799  2.1742 -0.4579 -0.9424
    6DOPC   C15  703   1.397   6.495   5.529 -0.3295  0.3881 -0.2601
    6DOPC  H15A  704   1.461   6.564   5.582  0.3993 -0.3117 -0.1977
    6DOPC  H15B  705   1.371   6.535   5.432  1.6095  0.4547 -0.7920
    6DOPC  H15C  706   1.451   6.407   5.496  1.6907  1.1007  0.9576
    6DOPC   C11  707   1.089   6.536   5.775  1.1806 -0.0117  0.1665
    6DOPC  H11A  708   1.140   6.493   5.864  0.6867  0.5122  0.7071
    6DOPC  H11B  709   1.042   6.636   5.788  0.0395 -0.4166 -0.6480
    6DOPC     P  710   0.864   6.495   5.641 -0.0334  0.0227  0.2186
    6DOPC   O13  711   0.771   6.568   5.735 -0.3840 -0.2794  0.4852
    6DOPC   O14  712   0.816   6.393   5.543 -0.6344  0.2242  0.2801
    6DOPC   O12  713   0.994   6.443   5.725  0.4880  0.2321  0.3340
    6DOPC   O11  714   0.928   6.606   5.549  0.5703 -0.4814  0.3063
    6DOPC    C1  715   0.857   6.697   5.467 -0.2527  0.2325  0.8853
    6DOPC    HA  716   0.907   6.796   5.469  1.8935 -0.7708  0.2495
    6DOPC    HB  717   0.755   6.720   5.502 -0.8275 -0.2196 -0.4095
    6DOPC    C2  718   0.848   6.653   5.315  0.3316  0.3780 -0.0053
    6DOPC    HS  719   0.799   6.736   5.259  2.8306  1.9635 -0.0012
    6DOPC   O21  720   0.784   6.529   5.287 -0.3404 -0.4135 -0.2840
    6DOPC   C21  721   0.651   6.539   5.294 -0.1428 -0.3478 -0.7827
    6DOPC   O22  722   0.589   6.638   5.325  0.2323  0.2629  0.0332
    6DOPC   C22  723   0.591   6.404   5.258  0.3359  0.1239 -0.8642
    6DOPC   H2R  724   0.522   6.361   5.333  2.0615 -0.4035  0.4955
    6DOPC   H2S  725   0.667   6.323   5.266 -0.4766 -0.6193 -0.5519
    6DOPC    C3  726   0.994   6.634   5.257  0.5559 -0.7097 -0.3670
    6DOPC    HX  727   1.030   6.554   5.325 -0.1370 -0.8786 -0.1981
    6DOPC    HY  728   1.043   6.731   5.280  1.0737 -0.7155 -1.3791
    6DOPC   O31  729   1.003   6.607   5.116  0.2871  0.1095  0.6925
    6DOPC   C31  730   1.025   6.473   5.088 -0.3423 -0.5867  0.1867
    6DOPC   O32  731   0.994   6.373   5.149 -0.5238 -0.1720  0.0366
    6DOPC   C32  732   1.068   6.459   4.938 -0.1895  0.9749  0.3304
    6DOPC   H2X  733   1.018   6.544   4.889 -1.0225  0.8849  1.0007
    6DOPC   H2Y  734   1.178   6.467   4.925  0.7303 -3.8674  2.7560
    6DOPC   C23  735   0.536   6.405   5.114 -0.2627  0.1069  0.4875
    6DOPC   H3R  736   0.448   6.473   5.110  0.9830  1.7716 -3.4050
    6DOPC   H3S  737   0.502   6.301   5.098  0.3269  0.1275 -1.1740
    6DOPC   C24  738   0.639   6.430   5.002 -0.8458  0.1418 -0.2818
    6DOPC   H4R  739   0.735   6.384   5.033 -1.1780 -0.3586  0.0235
    6DOPC   H4S  740   0.658   6.539   4.992  1.4537 -0.3335 -2.1028
    6DOPC   C25  741   0.590   6.376   4.866  0.2497  1.0106 -0.5338
    6DOPC   H5R  742   0.479   6.372   4.862  0.2701 -1.3291 -0.4905
    6DOPC   H5S  743   0.638   6.276   4.861  0.6989  1.0137  2.0649
    6DOPC   C26  744   0.638   6.455   4.750 -0.4856  0.4076 -0.3037
    6DOPC   H6R  745   0.743   6.488   4.761 -0.7890  1.1894  0.3224
    6DOPC   H6S  746   0.571   6.543   4.743 -2.6789 -0.9855  1.5888
    6DOPC   C27  747   0.638   6.378   4.621 -0.2079 -0.2732  0.5551
    6DOPC   H7R  748   0.541   6.328   4.603 -0.8689  0.3506  2.1630
    6DOPC   H7S  749   0.708   6.294   4.638 -0.8943 -0.7212  1.2317
    6DOPC   C28  750   0.683   6.460   4.501  0.7469 -0.0957  0.1723
    6DOPC   H8R  751   0.767   6.528   4.527  0.3705  0.4345  0.0170
    6DOPC   H8S  752   0.595   6.525   4.482  2.8988  2.1027 -3.3126
    6DOPC   C29  753   0.714   6.373   4.383 -0.7541 -0.1361 -0.6993
    6DOPC   H9R  754   0.659   6.278   4.380 -3.3108  1.2681 -2.0258
    6DOPC  C210  755   0.795   6.401   4.281  0.5050 -0.9081 -0.4162
    6DOPC  H10R  756   0.816   6.323   4.207  1.3579  0.4663 -1.6657
    6DOPC  C211  757   0.876   6.521   4.260  0.2020 -0.5973  0.2970
    6DOPC  H11R  758   0.972   6.497   4.310  0.8017 -0.5779 -0.8040
    6DOPC  H11S  759   0.840   6.613   4.310  2.1085  1.6647 -2.1568
    6DOPC  C212  760   0.911   6.577   4.111 -0.2735  0.8938 -0.0558
    6DOPC  H12R  761   0.976   6.514   4.047  1.4465  2.7304 -0.2006
    6DOPC  H12S  762   0.961   6.676   4.115 -0.9178  1.2008  0.7602
    6DOPC  C213  763   0.787   6.597   4.024  0.5446 -0.0618 -0.1403
    6DOPC  H13R  764   0.713   6.664   4.072  0.6355  0.3127 -0.5270
    6DOPC  H13S  765   0.736   6.499   4.016 -3.6032  1.9027 -0.0514
    6DOPC  C214  766   0.814   6.636   3.880 -0.7211 -0.4200  0.1425
    6DOPC  H14R  767   0.821   6.549   3.811  2.1758  0.3909 -0.7060
    6DOPC  H14S  768   0.911   6.689   3.888 -1.3870  0.8640 -0.0113
    6DOPC  C215  769   0.700   6.727   3.827  0.3867  0.2421 -0.5240
    6DOPC  H15R  770   0.681   6.802   3.907  2.4827 -2.6136  2.9015
    6DOPC  H15S  771   0.609   6.665   3.810  0.1878  0.5788 -0.7094
    6DOPC  C216  772   0.741   6.799   3.704 -0.1434 -0.7129 -0.4137
    6DOPC  H16R  773   0.766   6.737   3.615  1.3415 -0.7465 -0.0103
    6DOPC  H16S  774   0.833   6.858   3.726  0.1597 -1.1750 -0.4133
    6DOPC  C217  775   0.636   6.895   3.647  0.6235  0.2088  0.1150
    6DOPC  H17R  776   0.583   6.944   3.731 -0.9072 -3.0612  1.2167
    6DOPC  H17S  777   0.560   6.828   3.603 -0.2041  0.4979  1.0674
    6DOPC  C218  778   0.702   7.003   3.560 -0.1151 -0.6243 -0.0417
    6DOPC  H18R  779   0.715   7.098   3.616 -1.1991 -1.5350  1.8319
    6DOPC  H18S  780   0.631   7.028   3.478 -0.4665 -0.4097  0.3254
    6DOPC  H18T  781   0.798   6.966   3.516 -0.8690 -0.7084 -1.6951
    6DOPC   C33  782   1.034   6.323   4.860  0.1173 -0.8193  0.1228
    6DOPC   H3X  783   0.930   6.284   4.862 -0.3100  0.2214 -0.8060
    6DOPC   H3Y  784   1.084   6.242   4.917  0.0987 -1.4062 -0.6892
    6DOPC   C34  785   1.071   6.332   4.708 -0.6645 -0.1359 -0.2064
    6DOPC   H4X  786   1.179   6.357   4.698 -0.6566 -0.9054 -2.3949
    6DOPC   H4Y  787   1.014   6.414   4.659 -2.2932 -0.1451  1.5684
    6DOPC   C35  788   1.039   6.204   4.625  0.4226  0.5434  0.3082
    6DOPC   H5X  789   0.928   6.208   4.636  0.3196  1.9610 -0.9183
    6DOPC   H5Y  790   1.082   6.111   4.666  0.4630  0.7959  0.8376
    6DOPC   C36  791   1.074   6.216   4.479 -0.0346 -0.0220  0.4404
    6DOPC   H6X  792   1.009   6.158   4.409  3.4312 -0.0619 -3.0411
    6DOPC   H6Y  793   1.055   6.318   4.441  0.3658 -0.8337 -2.1833
    6DOPC   C37  794   1.225   6.178   4.449 -0.3841 -0.5930 -0.5602
    6DOPC   H7X  795   1.276   6.276   4.458 -3.1538  1.0001 -1.1483
    6DOPC   H7Y  796   1.260   6.104   4.524 -1.4838 -0.8720 -0.3076
    6DOPC   C38  797   1.271   6.136   4.308  0.5951 -0.7086 -0.0489
    6DOPC   H8X  798   1.216   6.046   4.271 -2.5362  1.1425 -0.2905
    6DOPC   H8Y  799   1.380   6.121   4.323  1.0503  0.8840 -1.5041
    6DOPC   C39  800   1.250   6.254   4.208  0.1609  0.0717 -0.3282
    6DOPC   H9X  801   1.315   6.341   4.226  3.5750 -2.1985 -0.7100
    6DOPC  C310  802   1.187   6.254   4.091 -0.2986 -0.2454 -0.0967
    6DOPC  H10X  803   1.209   6.338   4.024  1.0793 -0.3925  0.1488
    6DOPC  C311  804   1.121   6.141   4.014 -0.5857 -0.0225  0.0005
    6DOPC  H11X  805   1.106   6.056   4.084  3.8305  0.0070  1.2862
    6DOPC  H11Y  806   1.196   6.099   3.942  3.3871  3.3551  1.7418
    6DOPC  C312  807   0.976   6.170   3.949  0.0680  0.2712 -0.0077
    6DOPC  H12X  808   0.984   6.246   3.868 -0.0424 -0.6964 -0.9438
    6DOPC  H12Y  809   0.906   6.188   4.033  1.2854 -1.1342  1.3652
    6DOPC  C313  810   0.931   6.042   3.878  0.3183  0.0746 -0.3588
    6DOPC  H13X  811   1.009   5.992   3.818  0.8783  0.6430 -0.1171
    6DOPC  H13Y  812   0.888   5.975   3.954 -0.7423  0.7534 -0.3371
    6DOPC  C314  813   0.814   6.066   3.783 -0.7686  0.3874 -0.2689
    6DOPC  H14X  814   0.733   6.113   3.844  0.8716 -0.3310  2.6712
    6DOPC  H14Y  815   0.850   6.127   3.698  1.5965 -0.7620 -0.1696
    6DOPC  C315  816   0.752   5.936   3.729  0.2291  0.0419  1.1034
    6DOPC  H15X  817   0.819   5.880   3.659 -0.3397 -1.8545  2.0186
    6DOPC  H15Y  818   0.673   5.970   3.658  1.8464  0.4912 -0.5744
    6DOPC  C316  819   0.692   5.831   3.824  0.0902 -0.3602 -0.5665
    6DOPC  H16X  820   0.766   5.749   3.838  0.4096 -0.0457 -0.3981
    6DOPC  H16Y  821   0.676   5.868   3.927  0.1890 -1.9035  0.0288
    6DOPC  C317  822   0.560   5.766   3.773  0.4410 -0.0734  0.4900
    6DOPC  H17X  823   0.475   5.837   3.770  1.5885  1.4010  1.5509
    6DOPC  H17Y  824   0.577   5.740   3.666 -3.7085 -1.0088 -0.1141
    6DOPC  C318  825   0.516   5.643   3.844  0.3886  0.6902  0.5032
    6DOPC  H18X  826   0.412   5.611   3.825  1.1338  0.2666 -3.7376
    6DOPC  H18Y  827   0.572   5.553   3.811  0.0223  0.2656  1.0308
    6DOPC  H18Z  828   0.552   5.645   3.950  2.9608 -0.2410 -0.2807
    7DOPC     N  829   4.909   4.943   6.468 -0.1101  0.5379 -0.0680
    7DOPC   C12  830   4.925   4.883   6.328  0.2320 -0.2485  0.6336
    7DOPC  H12A  831   4.903   4.956   6.252  1.3595 -0.9960 -0.4583
    7DOPC  H12B  832   4.853   4.803   6.313  0.2781 -0.0754 -0.6626
    7DOPC   C13  833   4.764   4.936   6.498 -0.6423 -0.2056 -0.5367
    7DOPC  H13A  834   4.719   4.988   6.415  0.8769  0.1730 -1.1670
    7DOPC  H13B  835   4.725   4.836   6.509 -0.1790 -0.3920 -0.5413
    7DOPC  H13C  836   4.741   4.974   6.597  1.6713  0.2848 -0.1176
    7DOPC   C14  837   4.964   5.083   6.479  0.7380 -0.1329 -0.4023
    7DOPC  H14A  838   4.928   5.150   6.402 -2.1339 -0.3085  0.6500
    7DOPC  H14B  839   4.946   5.133   6.573  1.8618  1.0528 -0.7881
    7DOPC  H14C  840   5.071   5.086   6.467  1.2416 -2.0834  2.5969
    7DOPC   C15  841   4.975   4.856   6.568 -0.1814 -0.0889 -0.6245
    7DOPC  H15A  842   4.917   4.766   6.573 -0.6471  0.0204 -2.9901
    7DOPC  H15B  843   4.975   4.910   6.661 -1.7128 -1.1544  0.0166
    7DOPC  H15C  844   5.077   4.834   6.537  0.8073  4.9219 -1.9336
    7DOPC   C11  845   5.066   4.809   6.286  0.5839 -0.8823 -0.7322
    7DOPC  H11A  846   5.062   4.709   6.334 -1.3072  0.4360  2.1751
    7DOPC  H11B  847   5.070   4.791   6.176 -1.2063 -0.3578 -0.9225
    7DOPC     P  848   5.244   5.002   6.252 -0.1813  0.1107 -0.5208
    7DOPC   O13  849   5.378   5.027   6.310 -0.1479 -0.6140  0.0528
    7DOPC   O14  850   5.145   5.113   6.255  0.1553 -0.3783  0.1916
    7DOPC   O12  851   5.186   4.874   6.326  0.2814 -0.4819 -0.3157
    7DOPC   O11  852   5.263   4.957   6.102 -0.0457  1.2349 -0.4045
    7DOPC    C1  853   5.382   4.896   6.054 -0.1603 -0.6314  0.2908
    7DOPC    HA  854   5.362   4.813   5.983  0.9860 -2.5676  2.0876
    7DOPC    HB  855   5.437   4.851   6.140  0.1914 -0.5367  0.1195
    7DOPC    C2  856   5.483   4.996   5.980 -0.3934 -0.3187  0.1254
    7DOPC    HS  857   5.465   5.087   6.042  0.4136 -0.5062  0.6623
    7DOPC   O21  858   5.418   5.013   5.851 -0.5577  0.0552 -0.0272
    7DOPC   C21  859   5.448   5.122   5.789  0.1130 -1.2705 -0.6119
    7DOPC   O22  860   5.519   5.212   5.832 -0.5480 -0.2720 -0.0653
    7DOPC   C22  861   5.372   5.138   5.654  0.0376 -0.5100  0.2706
    7DOPC   H2R  862   5.263   5.135   5.676 -0.0954  0.3089 -0.2366
    7DOPC   H2S  863   5.400   5.057   5.583 -0.4430 -0.5010  0.0624
    7DOPC    C3  864   5.633   4.948   5.979 -0.5295 -0.3249 -0.1236
    7DOPC    HX  865   5.630   4.853   5.921 -1.9568 -0.0420 -0.5493
    7DOPC    HY  866   5.667   4.920   6.082 -0.8399  2.8901  0.9531
    7DOPC   O31  867   5.729   5.037   5.922  0.0732  0.4500 -0.6092
    7DOPC   C31  868   5.769   5.140   5.992 -0.3657  0.4622  0.6460
    7DOPC   O32  869   5.733   5.163   6.105  0.2646  0.4035 -0.3097
    7DOPC   C32  870   5.880   5.214   5.917 -0.4580  0.3473  0.3083
    7DOPC   H2X  871   5.919   5.287   5.991 -0.6106  0.6785  0.0669
    7DOPC   H2Y  872   5.957   5.143   5.879 -0.7248  0.3361 -0.2141
    7DOPC   C23  873   5.410   5.268   5.582 -0.1294  0.1426 -0.2137
    7DOPC   H3R  874   5.521   5.261   5.588 -0.2843 -1.4260  1.7756
    7DOPC   H3S  875   5.387   5.354   5.649 -0.1768 -2.3902  3.2577
    7DOPC   C24  876   5.351   5.282   5.446  0.2362 -1.0442 -0.4917
    7DOPC   H4R  877   5.392   5.379   5.410  1.1086  0.1780  3.3360
    7DOPC   H4S  878   5.242   5.294   5.456  0.3859 -0.3556  0.3865
    7DOPC   C25  879   5.390   5.176   5.337  0.8178 -0.4027  0.0594
    7DOPC   H5R  880   5.359   5.072   5.363  0.2209 -0.2659 -0.0891
    7DOPC   H5S  881   5.501   5.182   5.344  0.8745  1.2630 -1.4833
    7DOPC   C26  882   5.354   5.214   5.193  0.2082 -0.1878  0.4778
    7DOPC   H6R  883   5.375   5.323   5.184  0.7653 -0.3778 -0.6137
    7DOPC   H6S  884   5.245   5.190   5.188  0.6322 -2.4683  1.0808
    7DOPC   C27  885   5.411   5.127   5.078 -0.0296 -0.3884  0.1360
    7DOPC   H7R  886   5.371   5.024   5.088 -2.7423  0.4240 -1.2349
    7DOPC   H7S  887   5.520   5.126   5.095  0.6183 -0.7182 -3.2767
    7DOPC   C28  888   5.391   5.195   4.941 -0.2419  0.4542 -0.1283
    7DOPC   H8R  889   5.434   5.297   4.938  1.5258 -0.2273  0.5794
    7DOPC   H8S  890   5.283   5.217   4.929 -0.4010 -0.1821  0.0671
    7DOPC   C29  891   5.443   5.098   4.840  0.1419  0.3429  0.1192
    7DOPC   H9R  892   5.522   5.034   4.880  0.1700 -0.2565 -0.8660
    7DOPC  C210  893   5.411   5.098   4.710  0.3943 -0.1087 -0.0284
    7DOPC  H10R  894   5.460   5.045   4.626 -0.1535 -0.4976 -0.1069
    7DOPC  C211  895   5.308   5.186   4.645 -0.2019 -0.5808  0.3669
    7DOPC  H11R  896   5.247   5.240   4.721 -1.7267 -0.6668 -0.7610
    7DOPC  H11S  897   5.227   5.130   4.595 -2.1021  0.9614  1.5929
    7DOPC  C212  898   5.372   5.286   4.553 -0.0741 -0.4395  0.1814
    7DOPC  H12R  899   5.421   5.237   4.466  0.2145 -0.2610  0.2451
    7DOPC  H12S  900   5.451   5.344   4.604  0.4691  1.4599 -2.5721
    7DOPC  C213  901   5.259   5.384   4.494 -0.1183 -0.3744  0.0422
    7DOPC  H13R  902   5.303   5.472   4.443  0.7846 -0.7355  0.1754
    7DOPC  H13S  903   5.203   5.421   4.583 -1.2727 -0.2025 -0.7330
    7DOPC  C214  904   5.156   5.323   4.393 -0.2855 -0.4091  0.2932
    7DOPC  H14R  905   5.119   5.225   4.428 -1.4475 -0.5267 -1.1819
    7DOPC  H14S  906   5.224   5.313   4.306 -0.4928  0.7924 -0.0305
    7DOPC  C215  907   5.038   5.418   4.358  0.1877  0.6235 -0.0656
    7DOPC  H15R  908   5.088   5.504   4.308  1.5368 -0.7903 -1.2551
    7DOPC  H15S  909   4.985   5.450   4.450 -1.9456  0.7765 -1.2962
    7DOPC  C216  910   4.938   5.365   4.252 -0.2076  0.0223 -0.1107
    7DOPC  H16R  911   4.986   5.316   4.164 -2.1938 -0.2004 -1.1418
    7DOPC  H16S  912   4.870   5.449   4.226  1.4521  1.1697 -0.9099
    7DOPC  C217  913   4.834   5.263   4.305 -0.4994 -0.1868  0.2027
    7DOPC  H17R  914   4.757   5.302   4.375 -2.5279 -0.6366 -1.6593
    7DOPC  H17S  915   4.882   5.179   4.359 -2.2273 -0.8908  0.7111
    7DOPC  C218  916   4.758   5.186   4.199 -0.0824  0.1262  0.2773
    7DOPC  H18R  917   4.831   5.131   4.137  0.2983 -2.5462  2.8475
    7DOPC  H18S  918   4.687   5.253   4.145 -0.1091  0.8033  1.1211
    7DOPC  H18T  919   4.696   5.107   4.248 -1.3341 -0.3738 -1.9718
    7DOPC   C33  920   5.834   5.278   5.783 -0.3990 -0.1445  0.0766
    7DOPC   H3X  921   5.894   5.368   5.758 -0.1913 -0.1567  0.5138
    7DOPC   H3Y  922   5.733   5.314   5.811 -0.8163 -2.4584  1.8547
    7DOPC   C34  923   5.836   5.170   5.672 -0.2707  0.3719  0.0730
    7DOPC   H4X  924   5.758   5.093   5.687 -0.2192  0.2513 -0.2717
    7DOPC   H4Y  925   5.940   5.130   5.670 -0.0176  1.0381 -0.5023
    7DOPC   C35  926   5.814   5.223   5.533 -0.2486  0.4924  0.1118
    7DOPC   H5X  927   5.901   5.289   5.514 -1.5178  2.8895  1.9722
    7DOPC   H5Y  928   5.727   5.292   5.529  0.4431  1.3867  0.1451
    7DOPC   C36  929   5.800   5.107   5.427  0.1979  0.7977  0.0372
    7DOPC   H6X  930   5.881   5.034   5.451 -2.1718 -1.0432  3.2563
    7DOPC   H6Y  931   5.703   5.056   5.443  0.9661 -0.5783  0.5206
    7DOPC   C37  932   5.801   5.172   5.288 -0.4469  0.5139  0.2656
    7DOPC   H7X  933   5.709   5.228   5.261 -1.0740 -0.7183 -0.2278
    7DOPC   H7Y  934   5.888   5.241   5.298  0.0148 -0.1640  1.0532
    7DOPC   C38  935   5.814   5.063   5.174 -0.2437  0.0046 -0.0117
    7DOPC   H8X  936   5.704   5.050   5.164 -0.2241  0.9429 -2.1092
    7DOPC   H8Y  937   5.856   4.967   5.209 -0.0485  0.2642  0.4778
    7DOPC   C39  938   5.847   5.093   5.035 -0.8558  0.6084 -0.5037
    7DOPC   H9X  939   5.848   5.201   5.013  1.3357  1.0944  1.6331
    7DOPC  C310  940   5.892   5.013   4.939 -0.0052 -0.2841  1.1472
    7DOPC  H10X  941   5.934   5.050   4.844  0.3093 -2.0959  0.5471
    7DOPC  C311  942   5.892   4.865   4.950  0.8404 -0.3314  1.0243
    7DOPC  H11X  943   5.801   4.823   4.902  1.5253  0.8960 -1.5384
    7DOPC  H11Y  944   5.887   4.831   5.056 -0.4602 -2.5695  0.3123
    7DOPC  C312  945   6.008   4.795   4.868 -0.3373  0.2356 -0.2009
    7DOPC  H12X  946   5.999   4.686   4.884  0.0058  0.0456 -1.2182
    7DOPC  H12Y  947   6.102   4.837   4.909 -0.5571  0.4181  0.1265
    7DOPC  C313  948   6.004   4.830   4.713  0.5548 -0.2585  0.4088
    7DOPC  H13X  949   5.901   4.805   4.680  0.6390 -1.5959  1.0964
    7DOPC  H13Y  950   6.029   4.934   4.683  1.1079 -0.1609  1.1733
    7DOPC  C314  951   6.100   4.736   4.647 -0.6218 -0.3964  0.1355
    7DOPC  H14X  952   6.197   4.755   4.697 -2.0164  0.1704  2.7776
    7DOPC  H14Y  953   6.071   4.634   4.678  0.4878 -0.6329  0.4579
    7DOPC  C315  954   6.113   4.735   4.487  0.0364 -0.5572  0.7967
    7DOPC  H15X  955   6.017   4.710   4.435  0.0109  1.2069 -0.0692
    7DOPC  H15Y  956   6.191   4.658   4.466  0.0994 -0.1905 -0.3770
    7DOPC  C316  957   6.187   4.862   4.435 -0.4469  0.1111  0.8553
    7DOPC  H16X  958   6.119   4.947   4.457 -0.9130 -0.2264  0.7354
    7DOPC  H16Y  959   6.283   4.876   4.489 -0.9879 -2.8269  2.7947
    7DOPC  C317  960   6.217   4.863   4.283  0.7717  0.7203  0.0660
    7DOPC  H17X  961   6.271   4.769   4.259 -0.0104  0.1138  0.6605
    7DOPC  H17Y  962   6.119   4.848   4.234  1.0893  0.0324 -0.3801
    7DOPC  C318  963   6.281   4.983   4.223 -0.8231 -1.3485 -0.2138
    7DOPC  H18X  964   6.212   5.068   4.243  0.0875 -0.8580  0.9619
    7DOPC  H18Y  965   6.377   5.013   4.271  0.3819 -4.4202 -0.4769
    7DOPC  H18Z  966   6.287   4.971   4.113  0.1915 -1.8579 -0.1184
    8DOPC     N  967   4.270   4.967   6.187  0.3920  0.8736  0.1348
    8DOPC   C12  968   4.274   5.106   6.141  0.3797  0.6595 -0.0098
    8DOPC  H12A  969   4.276   5.173   6.226  2.0930 -0.4442  0.8822
    8DOPC  H12B  970   4.186   5.135   6.085 -0.6938 -0.8237  0.8534
    8DOPC   C13  971   4.158   4.934   6.288  0.7972  0.3046  0.2040
    8DOPC  H13A  972   4.180   4.834   6.322  4.2598  0.8866  0.0330
    8DOPC  H13B  973   4.171   4.999   6.373  1.2668  2.6771 -1.5790
    8DOPC  H13C  974   4.059   4.948   6.248  1.2972  1.0457 -0.8074
    8DOPC   C14  975   4.396   4.921   6.250 -0.4537  0.0265 -0.5750
    8DOPC  H14A  976   4.399   4.814   6.267  1.0795  0.0109 -0.7961
    8DOPC  H14B  977   4.482   4.946   6.190 -0.3722 -1.3574 -1.0849
    8DOPC  H14C  978   4.411   4.972   6.344  1.4728 -1.1233 -0.1954
    8DOPC   C15  979   4.241   4.876   6.072  0.2399  0.4589  0.0892
    8DOPC  H15A  980   4.310   4.871   5.990  3.8636  0.5724  2.8862
    8DOPC  H15B  981   4.146   4.908   6.031 -1.6688 -0.3941  3.3866
    8DOPC  H15C  982   4.215   4.779   6.114 -1.4953  0.1073 -1.6387
    8DOPC   C11  983   4.393   5.147   6.053  0.0985  0.0009  0.4570
    8DOPC  H11A  984   4.427   5.055   6.000  1.0085 -0.9664  2.5711
    8DOPC  H11B  985   4.362   5.223   5.978  1.2476  1.0042  0.9767
    8DOPC     P  986   4.527   5.341   6.161 -0.2244 -0.0226  0.0164
    8DOPC   O13  987   4.636   5.357   6.260 -0.2361  0.5355 -0.0392
    8DOPC   O14  988   4.405   5.398   6.206  0.2805 -0.1615  0.5184
    8DOPC   O12  989   4.506   5.189   6.137  0.3379 -0.4002  0.0224
    8DOPC   O11  990   4.569   5.399   6.022 -0.0987 -0.3426  0.3184
    8DOPC    C1  991   4.676   5.341   5.945  0.1911 -0.0216  0.2601
    8DOPC    HA  992   4.732   5.259   5.995  1.3376  0.9388  0.5787
    8DOPC    HB  993   4.750   5.422   5.928 -1.3019  1.4779  0.5969
    8DOPC    C2  994   4.622   5.287   5.807 -0.5989  0.6136 -0.4742
    8DOPC    HS  995   4.550   5.207   5.832  0.3918  0.3483  1.6965
    8DOPC   O21  996   4.728   5.232   5.730  0.1033 -0.0149 -0.5020
    8DOPC   C21  997   4.696   5.130   5.646 -0.7817  0.3331 -0.4725
    8DOPC   O22  998   4.590   5.077   5.640  0.0691  0.2559 -0.2231
    8DOPC   C22  999   4.817   5.097   5.556 -0.1268  0.3423 -0.2866
    8DOPC   H2R 1000   4.878   5.029   5.620 -2.7052 -3.4201 -1.4607
    8DOPC   H2S 1001   4.862   5.197   5.537 -1.1883  1.1672  1.3000
    8DOPC    C3 1002   4.560   5.397   5.720  0.5689  0.0860  0.2437
    8DOPC    HX 1003   4.636   5.476   5.702 -1.2711  2.4046  1.9524
    8DOPC    HY 1004   4.485   5.460   5.773  0.8063  0.3501  0.2697
    8DOPC   O31 1005   4.511   5.348   5.596 -0.3366 -0.3212  0.0657
    8DOPC   C31 1006   4.388   5.290   5.598  0.2795 -0.1055 -0.3260
    8DOPC   O32 1007   4.317   5.293   5.694  0.2731  0.5919  0.0076
    8DOPC   C32 1008   4.348   5.226   5.469 -0.2613  0.3284 -0.0617
    8DOPC   H2X 1009   4.434   5.223   5.399 -0.8307  2.1064 -0.8980
    8DOPC   H2Y 1010   4.310   5.122   5.481  0.2508 -0.0555 -1.4489
    8DOPC   C23 1011   4.795   5.007   5.433 -0.0811 -0.1762  0.1066
    8DOPC   H3R 1012   4.745   4.910   5.457 -0.0672 -0.0464  0.6755
    8DOPC   H3S 1013   4.890   4.991   5.377 -0.8336 -0.0166 -1.2651
    8DOPC   C24 1014   4.716   5.075   5.322 -0.4255 -0.4293 -0.7230
    8DOPC   H4R 1015   4.778   5.146   5.263  1.9096 -1.2033  0.6506
    8DOPC   H4S 1016   4.634   5.129   5.373  0.3317 -1.8779  2.2382
    8DOPC   C25 1017   4.648   4.962   5.240  0.7070 -0.0796  0.1482
    8DOPC   H5R 1018   4.580   4.894   5.295 -1.0153  0.0435 -1.6903
    8DOPC   H5S 1019   4.723   4.904   5.182  0.1470 -1.0255  0.3410
    8DOPC   C26 1020   4.554   5.030   5.140  0.4563 -0.1645  0.1239
    8DOPC   H6R 1021   4.607   5.118   5.096 -1.1524  0.8508  0.1166
    8DOPC   H6S 1022   4.460   5.066   5.188  0.2798 -0.4556 -0.0012
    8DOPC   C27 1023   4.517   4.922   5.031  0.4187  0.3741  0.4228
    8DOPC   H7R 1024   4.451   4.847   5.078  0.9321 -0.7980 -0.6588
    8DOPC   H7S 1025   4.605   4.867   4.991 -0.4317 -0.8857  0.2478
    8DOPC   C28 1026   4.430   4.973   4.914  0.4063  0.2687 -0.1769
    8DOPC   H8R 1027   4.494   5.052   4.868  0.1423 -0.2677 -1.5024
    8DOPC   H8S 1028   4.344   5.027   4.958  1.1417 -1.9277  4.5250
    8DOPC   C29 1029   4.385   4.867   4.814  0.2134 -0.5362 -0.0013
    8DOPC   H9R 1030   4.348   4.778   4.868  3.8706 -1.4248  1.3120
    8DOPC  C210 1031   4.376   4.873   4.679  0.6725 -0.0033 -0.2857
    8DOPC  H10R 1032   4.349   4.783   4.623 -0.6485 -0.3647  0.8677
    8DOPC  C211 1033   4.439   4.979   4.589 -0.1563 -0.1170  0.4199
    8DOPC  H11R 1034   4.464   5.069   4.649 -0.6829  0.7518 -0.6277
    8DOPC  H11S 1035   4.359   5.022   4.525 -1.2600  0.1606  1.9436
    8DOPC  C212 1036   4.559   4.952   4.489  0.6669 -0.2643  1.3529
    8DOPC  H12R 1037   4.595   5.045   4.441  1.3630 -1.5182 -0.6657
    8DOPC  H12S 1038   4.518   4.872   4.424 -0.8268  0.9052  0.8183
    8DOPC  C213 1039   4.688   4.896   4.560 -0.2566  0.3248 -0.4215
    8DOPC  H13R 1040   4.663   4.814   4.631 -1.0305 -0.1441 -1.2116
    8DOPC  H13S 1041   4.734   4.976   4.621 -1.8831  0.3270  0.8497
    8DOPC  C214 1042   4.768   4.829   4.444 -1.0976  0.2853 -0.2625
    8DOPC  H14R 1043   4.771   4.898   4.357 -0.4043  0.4621 -0.1033
    8DOPC  H14S 1044   4.705   4.744   4.409 -3.0587  0.9625  1.4270
    8DOPC  C215 1045   4.900   4.767   4.493 -0.2758 -0.4083  0.1356
    8DOPC  H15R 1046   4.925   4.671   4.444  0.7943  1.1889 -2.6730
    8DOPC  H15S 1047   4.894   4.746   4.602 -0.6236  0.5498  0.3149
    8DOPC  C216 1048   5.020   4.860   4.473 -0.0979 -0.6553  0.7936
    8DOPC  H16R 1049   4.986   4.950   4.529 -0.3757 -1.0309  1.2330
    8DOPC  H16S 1050   5.013   4.872   4.363  1.2006 -1.8557  0.5500
    8DOPC  C217 1051   5.153   4.804   4.521 -0.2238 -0.2454  0.3022
    8DOPC  H17R 1052   5.215   4.890   4.489 -0.1847  0.2378  1.6126
    8DOPC  H17S 1053   5.176   4.714   4.460 -1.8850 -1.2314  1.0380
    8DOPC  C218 1054   5.163   4.781   4.668 -0.0209  0.3104 -0.8292
    8DOPC  H18R 1055   5.264   4.742   4.693  0.5384  1.1429 -1.6958
    8DOPC  H18S 1056   5.088   4.708   4.704 -1.7860  1.8386 -1.1882
    8DOPC  H18T 1057   5.143   4.871   4.730  1.7986 -0.2746  0.6676
    8DOPC   C33 1058   4.230   5.300   5.405 -0.5074 -0.1757  0.0259
    8DOPC   H3X 1059   4.278   5.396   5.375  0.2707 -1.1292 -1.9425
    8DOPC   H3Y 1060   4.145   5.316   5.475 -0.1068 -0.9046  0.6847
    8DOPC   C34 1061   4.174   5.231   5.287  0.7637  0.5218 -0.3746
    8DOPC   H4X 1062   4.090   5.165   5.316 -0.3590  1.5515 -1.1919
    8DOPC   H4Y 1063   4.258   5.170   5.248  0.5255 -0.0526 -0.0052
    8DOPC   C35 1064   4.129   5.321   5.174  0.2006  0.3870  0.1967
    8DOPC   H5X 1065   4.207   5.399   5.157  4.7244 -4.2715 -3.9718
    8DOPC   H5Y 1066   4.040   5.376   5.212  0.2552  1.3892 -1.0604
    8DOPC   C36 1067   4.112   5.264   5.031  0.0812  0.0631  0.8580
    8DOPC   H6X 1068   4.211   5.230   4.994 -0.0580  0.0305  0.5142
    8DOPC   H6Y 1069   4.039   5.181   5.031 -0.0950  0.2154  1.0427
    8DOPC   C37 1070   4.062   5.361   4.920 -0.4727  0.6941  0.1005
    8DOPC   H7X 1071   3.999   5.440   4.966 -0.8331  0.4005  0.1143
    8DOPC   H7Y 1072   4.144   5.422   4.876 -0.5801 -0.6887 -2.1670
    8DOPC   C38 1073   3.978   5.293   4.806  0.3552 -0.0102  0.0396
    8DOPC   H8X 1074   3.940   5.371   4.736 -1.5057  1.4497  2.5073
    8DOPC   H8Y 1075   3.880   5.257   4.843  0.9983  0.7560  2.6665
    8DOPC   C39 1076   4.059   5.185   4.733 -0.6798  0.1168  0.0417
    8DOPC   H9X 1077   4.143   5.136   4.783  0.3055 -1.6078 -3.0350
    8DOPC  C310 1078   4.057   5.152   4.603 -0.4798 -0.1659  0.1643
    8DOPC  H10X 1079   4.126   5.074   4.567  0.1299  0.4141  0.0640
    8DOPC  C311 1080   3.945   5.197   4.511 -0.1662  0.2917 -0.1202
    8DOPC  H11X 1081   3.982   5.249   4.420  1.2082 -1.8659 -0.8620
    8DOPC  H11Y 1082   3.887   5.276   4.564 -0.1770  0.6146 -0.6073
    8DOPC  C312 1083   3.851   5.091   4.452  1.0126 -0.7276 -0.6753
    8DOPC  H12X 1084   3.760   5.148   4.423  0.4296  1.2596  4.1586
    8DOPC  H12Y 1085   3.816   5.024   4.533  0.4615  1.2033  0.7473
    8DOPC  C313 1086   3.899   5.010   4.339  0.0604  0.5159 -0.5631
    8DOPC  H13X 1087   3.821   4.936   4.312 -0.6149  1.3797 -1.0404
    8DOPC  H13Y 1088   3.923   5.078   4.254 -1.8155 -0.9768 -2.4041
    8DOPC  C314 1089   4.036   4.938   4.364  0.1475 -0.4318  0.0899
    8DOPC  H14X 1090   4.127   5.001   4.367  0.8902 -1.4988  1.2237
    8DOPC  H14Y 1091   4.034   4.879   4.459 -0.8130  0.7637  0.8562
    8DOPC  C315 1092   4.062   4.849   4.238  0.2315  1.2646  0.3913
    8DOPC  H15X 1093   4.080   4.919   4.154 -0.7874 -1.0141 -1.8586
    8DOPC  H15Y 1094   3.975   4.792   4.198  1.5919 -0.3204 -0.4048
    8DOPC  C316 1095   4.181   4.752   4.242  0.5866  0.5767  0.1263
    8DOPC  H16X 1096   4.209   4.708   4.144 -1.4890 -1.0212  0.1684
    8DOPC  H16Y 1097   4.269   4.810   4.277 -0.2687  1.1519  1.4319
    8DOPC  C317 1098   4.156   4.640   4.341  0.0970 -0.1268  0.2327
    8DOPC  H17X 1099   4.116   4.684   4.435 -0.7985  1.0221 -0.6543
    8DOPC  H17Y 1100   4.070   4.582   4.300 -1.1063  1.1767  0.8267
    8DOPC  C318 1101   4.265   4.539   4.372  0.2963 -0.2662 -0.6826
    8DOPC  H18X 1102   4.292   4.483   4.279 -1.5290 -0.3647 -1.1936
    8DOPC  H18Y 1103   4.347   4.599   4.418  0.0227 -1.6673  1.7914
    8DOPC  H18Z 1104   4.221   4.460   4.436 -2.2928  1.4991 -0.1527
    9DOPC     N 1105   0.704   2.147   6.639  0.3789 -0.0503  0.0464
    9DOPC   C12 1106   0.561   2.160   6.592 -0.1976  0.1968  0.0400
    9DOPC  H12A 1107   0.532   2.263   6.580  0.5508  0.2258 -1.7512
    9DOPC  H12B 1108   0.493   2.115   6.663 -2.0664 -0.5585 -2.1212
    9DOPC   C13 1109   0.715   2.010   6.701 -0.5937 -0.6690  0.5860
    9DOPC  H13A 1110   0.628   1.991   6.762 -0.1476 -0.2533  1.3681
    9DOPC  H13B 1111   0.724   1.932   6.626 -0.1845 -0.1664  0.1045
    9DOPC  H13C 1112   0.808   2.008   6.756 -0.3029 -0.4409  0.1131
    9DOPC   C14 1113   0.725   2.257   6.745  0.4936 -0.0018 -0.0998
    9DOPC  H14A 1114   0.645   2.249   6.818 -0.8763 -2.1771 -1.7211
    9DOPC  H14B 1115   0.816   2.244   6.802  0.7421  0.9669 -0.2597
    9DOPC  H14C 1116   0.722   2.355   6.699  0.4527 -0.9961 -2.3311
    9DOPC   C15 1117   0.808   2.169   6.530  0.2273  1.2002 -0.1946
    9DOPC  H15A 1118   0.799   2.272   6.498 -0.9769  0.8809 -0.9527
    9DOPC  H15B 1119   0.778   2.101   6.452 -2.1692  0.9190  0.8765
    9DOPC  H15C 1120   0.909   2.153   6.566 -0.1812 -1.8502 -0.1845
    9DOPC   C11 1121   0.528   2.080   6.467 -0.4296 -0.2202  0.3529
    9DOPC  H11A 1122   0.571   1.977   6.472  0.2781  0.0931  0.7775
    9DOPC  H11B 1123   0.419   2.058   6.458 -0.5307  0.3830  0.0389
    9DOPC     P 1124   0.506   2.262   6.290  0.0043 -0.4078 -0.1056
    9DOPC   O13 1125   0.578   2.374   6.341  0.1467 -0.2305  0.6670
    9DOPC   O14 1126   0.362   2.260   6.319 -0.1613  0.1988 -0.2335
    9DOPC   O12 1127   0.577   2.139   6.348  0.1413  0.3577  0.1846
    9DOPC   O11 1128   0.532   2.247   6.138  0.1738  0.4563 -0.1768
    9DOPC    C1 1129   0.530   2.117   6.078 -0.0731 -0.3762  0.9349
    9DOPC    HA 1130   0.470   2.039   6.130 -0.3736  0.4208  1.7979
    9DOPC    HB 1131   0.634   2.078   6.069  0.0186 -0.0558  0.5675
    9DOPC    C2 1132   0.466   2.123   5.935  0.5661 -0.5592 -0.7148
    9DOPC    HS 1133   0.430   2.021   5.909 -0.0034  0.0075 -2.2976
    9DOPC   O21 1134   0.567   2.171   5.843 -0.0262  0.7376  0.5943
    9DOPC   C21 1135   0.650   2.080   5.802 -0.5976  0.7249 -0.3440
    9DOPC   O22 1136   0.650   1.958   5.832  0.2516 -0.2442  0.6250
    9DOPC   C22 1137   0.755   2.143   5.709 -0.1892  0.4177 -0.5089
    9DOPC   H2R 1138   0.826   2.058   5.697  0.8145  1.0725  0.5602
    9DOPC   H2S 1139   0.791   2.231   5.767 -0.6230  0.1465  0.1956
    9DOPC    C3 1140   0.349   2.221   5.933  0.7685 -0.3535 -0.1106
    9DOPC    HX 1141   0.382   2.320   5.971  1.2712 -0.6564  0.2388
    9DOPC    HY 1142   0.267   2.179   5.995 -0.0384 -0.8885 -1.5022
    9DOPC   O31 1143   0.299   2.221   5.798 -0.1625  0.9299  0.0275
    9DOPC   C31 1144   0.331   2.321   5.720  0.4802 -0.1800 -0.2619
    9DOPC   O32 1145   0.399   2.416   5.760 -0.0421  0.1193 -0.1657
    9DOPC   C32 1146   0.256   2.298   5.584  0.4852  0.2424  0.0200
    9DOPC   H2X 1147   0.287   2.198   5.549  1.6101  0.4629  0.3590
    9DOPC   H2Y 1148   0.147   2.312   5.603  0.2681  0.6195 -1.3866
    9DOPC   C23 1149   0.696   2.178   5.575 -0.7172 -0.6631  0.2667
    9DOPC   H3R 1150   0.781   2.231   5.527  0.9492  1.0106  4.6119
    9DOPC   H3S 1151   0.614   2.253   5.580  0.8730  1.2224 -0.6713
    9DOPC   C24 1152   0.655   2.058   5.484  0.2757  0.5466 -0.3514
    9DOPC   H4R 1153   0.608   2.090   5.389 -0.5726  0.7965  0.1392
    9DOPC   H4S 1154   0.572   2.001   5.533 -0.3850  1.2626 -0.6219
    9DOPC   C25 1155   0.760   1.956   5.448 -0.5612 -0.1619 -0.2035
    9DOPC   H5R 1156   0.803   1.917   5.543 -0.2622  2.6785  0.9077
    9DOPC   H5S 1157   0.844   1.993   5.386  0.7734 -1.1649  0.9295
    9DOPC   C26 1158   0.701   1.835   5.376 -0.1328 -0.2468  0.3371
    9DOPC   H6R 1159   0.653   1.874   5.284  2.3177 -0.8095 -1.2700
    9DOPC   H6S 1160   0.626   1.782   5.439 -1.9214  0.4182 -1.1334
    9DOPC   C27 1161   0.793   1.725   5.326 -0.0436  0.5110 -0.2111
    9DOPC   H7R 1162   0.849   1.677   5.409  4.1117  0.5841 -2.7077
    9DOPC   H7S 1163   0.871   1.773   5.264 -0.2736 -1.5397 -2.2550
    9DOPC   C28 1164   0.721   1.625   5.243 -0.1595  0.4651  0.2752
    9DOPC   H8R 1165   0.805   1.561   5.208  0.7054  1.0906  1.1520
    9DOPC   H8S 1166   0.669   1.675   5.159  0.4418  1.7866  0.6734
    9DOPC   C29 1167   0.634   1.539   5.337 -0.0877 -0.5132  0.0993
    9DOPC   H9R 1168   0.664   1.536   5.443  0.1974 -0.2938  0.0275
    9DOPC  C210 1169   0.545   1.455   5.303 -0.0379  0.1077  0.0697
    9DOPC  H10R 1170   0.492   1.397   5.380  0.4564 -0.6080 -0.1153
    9DOPC  C211 1171   0.497   1.428   5.161  0.6453  0.0456 -0.0307
    9DOPC  H11R 1172   0.446   1.329   5.152 -2.6223  1.5981  0.0491
    9DOPC  H11S 1173   0.582   1.426   5.089  1.8551  2.4397  1.2321
    9DOPC  C212 1174   0.383   1.524   5.118 -0.0548 -0.3115 -0.3778
    9DOPC  H12R 1175   0.414   1.631   5.124  0.8299 -0.5770 -0.1949
    9DOPC  H12S 1176   0.307   1.522   5.199  1.1446 -3.3424  0.7956
    9DOPC  C213 1177   0.321   1.496   4.985  0.2881 -0.1178  0.1478
    9DOPC  H13R 1178   0.278   1.393   4.985  0.1944 -0.0822 -0.3767
    9DOPC  H13S 1179   0.403   1.493   4.909 -0.0717 -0.2278 -0.2402
    9DOPC  C214 1180   0.215   1.599   4.936 -0.2995 -0.2877 -0.2796
    9DOPC  H14R 1181   0.267   1.698   4.928  1.6967 -1.3843 -1.6858
    9DOPC  H14S 1182   0.152   1.605   5.027  1.8576 -0.9755  1.3557
    9DOPC  C215 1183   0.145   1.555   4.802  0.5490  0.6326 -0.4889
    9DOPC  H15R 1184   0.227   1.509   4.742  0.0561 -1.7698  0.5267
    9DOPC  H15S 1185   0.095   1.639   4.751 -2.6122 -0.2775  0.8856
    9DOPC  C216 1186   0.044   1.432   4.811 -0.3162 -0.1389  0.7178
    9DOPC  H16R 1187  -0.036   1.440   4.887  0.4183  0.3055  1.4530
    9DOPC  H16S 1188   0.113   1.350   4.842  0.8741  0.4776 -0.2233
    9DOPC  C217 1189  -0.020   1.393   4.676 -0.0209 -0.1890  0.1960
    9DOPC  H17R 1190  -0.065   1.486   4.636 -0.1990 -0.6313 -0.6361
    9DOPC  H17S 1191  -0.104   1.322   4.690 -0.2277  0.1998  1.0064
    9DOPC  C218 1192   0.072   1.344   4.565 -0.3004 -0.2729 -0.2230
    9DOPC  H18R 1193   0.010   1.323   4.475 -2.5241  1.1473  0.8794
    9DOPC  H18S 1194   0.115   1.248   4.600  1.5592  0.3075 -0.7921
    9DOPC  H18T 1195   0.152   1.416   4.537 -1.2273  1.4571  1.3410
    9DOPC   C33 1196   0.283   2.406   5.480  0.1838  0.1737  0.0916
    9DOPC   H3X 1197   0.384   2.392   5.436  0.8096 -0.3746  1.6725
    9DOPC   H3Y 1198   0.278   2.503   5.533  0.2615 -1.2781  2.9035
    9DOPC   C34 1199   0.176   2.414   5.363  0.2493  0.2959 -0.4812
    9DOPC   H4X 1200   0.087   2.451   5.417  0.4665 -0.1539  0.2063
    9DOPC   H4Y 1201   0.160   2.317   5.312  0.1028  0.0923 -0.0544
    9DOPC   C35 1202   0.220   2.501   5.248  0.3331 -0.0038  0.5253
    9DOPC   H5X 1203   0.295   2.439   5.195  1.5813  1.5743  0.3809
    9DOPC   H5Y 1204   0.260   2.600   5.280  0.6221  0.2134 -0.4655
    9DOPC   C36 1205   0.100   2.528   5.159 -0.1458 -0.9374 -0.3533
    9DOPC   H6X 1206   0.056   2.438   5.111 -1.8799 -0.8959  1.0283
    9DOPC   H6Y 1207   0.022   2.562   5.230  1.1036  0.5707  0.3763
    9DOPC   C37 1208   0.104   2.649   5.063 -0.3970  0.2779 -0.9329
    9DOPC   H7X 1209   0.113   2.740   5.126  0.2260  0.2130 -0.9211
    9DOPC   H7Y 1210   0.200   2.651   5.008  0.8001  0.4225  1.0651
    9DOPC   C38 1211  -0.008   2.658   4.962  0.2584 -0.4668  0.0077
    9DOPC   H8X 1212  -0.106   2.663   5.014  0.1438  2.0490 -0.3329
    9DOPC   H8Y 1213  -0.005   2.564   4.902  0.6908 -1.1968  1.1384
    9DOPC   C39 1214   0.006   2.784   4.875 -1.0264 -0.8582  0.2319
    9DOPC   H9X 1215  -0.013   2.881   4.924  1.5104 -0.0078 -0.3366
    9DOPC  C310 1216   0.022   2.786   4.743  0.0234 -0.1017 -0.1164
    9DOPC  H10X 1217   0.011   2.882   4.691  0.1125 -0.3322 -0.5708
    9DOPC  C311 1218   0.033   2.674   4.648 -0.6105  0.6742 -0.4875
    9DOPC  H11X 1219   0.064   2.581   4.701  0.4686 -0.2222 -2.5813
    9DOPC  H11Y 1220   0.112   2.698   4.573  0.4187 -0.6130  0.1396
    9DOPC  C312 1221  -0.098   2.653   4.566 -0.2303  0.1237 -0.2918
    9DOPC  H12X 1222  -0.175   2.635   4.645  0.2937  0.7611  0.3886
    9DOPC  H12Y 1223  -0.089   2.557   4.513 -2.0624 -0.4303  0.3120
    9DOPC  C313 1224  -0.140   2.767   4.476 -1.0491 -0.4079  0.0120
    9DOPC  H13X 1225  -0.166   2.854   4.540 -2.6007 -1.4841  0.9063
    9DOPC  H13Y 1226  -0.055   2.803   4.414 -1.4958  0.6760  0.0099
    9DOPC  C314 1227  -0.238   2.732   4.367  0.1712  0.0365  0.2928
    9DOPC  H14X 1228  -0.188   2.659   4.300  0.7791  1.0505 -0.3915
    9DOPC  H14Y 1229  -0.332   2.692   4.410 -0.2809 -0.4045 -1.0647
    9DOPC  C315 1230  -0.282   2.857   4.298 -0.0961 -0.0002  0.5658
    9DOPC  H15X 1231  -0.195   2.914   4.258 -1.0444  0.2530 -1.2370
    9DOPC  H15Y 1232  -0.330   2.917   4.378  0.0104  1.4982 -0.4642
    9DOPC  C316 1233  -0.387   2.822   4.185 -0.5366 -0.6289  0.1660
    9DOPC  H16X 1234  -0.452   2.742   4.228  0.0217 -0.5416  1.1936
    9DOPC  H16Y 1235  -0.445   2.916   4.171 -0.8759 -0.3983  2.6646
    9DOPC  C317 1236  -0.329   2.799   4.045  0.5916  0.0887  0.6602
    9DOPC  H17X 1237  -0.261   2.711   4.056  0.5407 -0.0308  0.0050
    9DOPC  H17Y 1238  -0.408   2.770   3.973  0.4030 -0.0457  0.9196
    9DOPC  C318 1239  -0.256   2.925   3.988  0.0692 -0.0489  0.1659
    9DOPC  H18X 1240  -0.320   3.014   4.007 -1.2923 -0.9787 -0.0041
    9DOPC  H18Y 1241  -0.154   2.936   4.031  0.7693 -1.4554 -1.0411
    9DOPC  H18Z 1242  -0.260   2.905   3.879 -1.9338  0.7101  0.0672
   10DOPC     N 1243  -0.100   6.163   5.951  0.2765 -0.7100 -0.4111
   10DOPC   C12 1244  -0.188   6.054   5.898 -0.1256  0.3072  0.3116
   10DOPC  H12A 1245  -0.122   5.983   5.850 -1.2900 -0.2698 -0.4857
   10DOPC  H12B 1246  -0.251   6.084   5.816 -3.0211  0.2152  2.3742
   10DOPC   C13 1247  -0.183   6.265   6.024  0.3879 -0.1975 -0.2884
   10DOPC  H13A 1248  -0.265   6.308   5.968  1.0929  1.1147 -0.3611
   10DOPC  H13B 1249  -0.221   6.217   6.113 -1.3153  1.9044  0.2369
   10DOPC  H13C 1250  -0.120   6.351   6.043 -1.1097  0.5415  1.7464
   10DOPC   C14 1251  -0.004   6.230   5.853 -0.3549  0.1793 -0.2441
   10DOPC  H14A 1252  -0.028   6.336   5.857  0.0484  0.2881 -0.6958
   10DOPC  H14B 1253   0.093   6.214   5.898 -0.6277 -3.2093 -0.5997
   10DOPC  H14C 1254  -0.024   6.196   5.753 -2.6987 -0.8089  0.4742
   10DOPC   C15 1255  -0.009   6.108   6.057 -0.0923  0.7073  0.2357
   10DOPC  H15A 1256   0.053   6.187   6.098 -1.3699  1.9840 -0.2531
   10DOPC  H15B 1257   0.044   6.017   6.032 -1.6866 -0.9168  2.3857
   10DOPC  H15C 1258  -0.067   6.069   6.139 -0.9444  0.3517 -0.5204
   10DOPC   C11 1259  -0.273   5.978   5.997  0.0434 -0.0874  0.3806
   10DOPC  H11A 1260  -0.360   6.040   6.030 -0.4398 -1.1013  1.0582
   10DOPC  H11B 1261  -0.322   5.897   5.939  1.3463 -0.9007  0.3913
   10DOPC     P 1262  -0.126   5.776   6.108 -0.1134  0.1570  0.4159
   10DOPC   O13 1263  -0.119   5.724   6.245  0.0259  0.1041  0.3051
   10DOPC   O14 1264   0.005   5.795   6.040 -0.0533 -0.3646 -0.2346
   10DOPC   O12 1265  -0.202   5.916   6.110  0.4405 -0.7824 -0.5509
   10DOPC   O11 1266  -0.212   5.686   6.017 -0.1986 -0.3708  0.6425
   10DOPC    C1 1267  -0.144   5.566   5.961 -0.3119  0.1633 -0.4301
   10DOPC    HA 1268  -0.224   5.490   5.953 -0.2638 -0.2259  2.0702
   10DOPC    HB 1269  -0.073   5.528   6.037 -0.4755  0.3931 -0.1615
   10DOPC    C2 1270  -0.084   5.584   5.817  1.1821 -0.6835 -0.3084
   10DOPC    HS 1271  -0.004   5.661   5.824 -0.3393  1.0822 -1.4913
   10DOPC   O21 1272  -0.185   5.614   5.715  0.8325  0.0354 -0.2487
   10DOPC   C21 1273  -0.177   5.730   5.663 -0.0364 -0.0033 -0.4201
   10DOPC   O22 1274  -0.112   5.824   5.705 -0.8673 -0.0897  0.3124
   10DOPC   C22 1275  -0.265   5.714   5.538  0.5324  0.3162 -0.3980
   10DOPC   H2R 1276  -0.360   5.763   5.568  0.4445  0.0744 -0.2822
   10DOPC   H2S 1277  -0.270   5.604   5.521  1.9306 -0.0983  1.5568
   10DOPC    C3 1278  -0.008   5.462   5.773 -0.2385  0.6814 -0.0962
   10DOPC    HX 1279  -0.075   5.374   5.767  1.3613 -0.4687 -3.2595
   10DOPC    HY 1280   0.060   5.432   5.856  0.6615  0.4679 -0.8922
   10DOPC   O31 1281   0.057   5.495   5.646  0.4472  0.5066 -0.7234
   10DOPC   C31 1282   0.182   5.515   5.655  0.7540 -0.1572  0.0392
   10DOPC   O32 1283   0.251   5.489   5.749 -0.2261 -0.2180 -0.7718
   10DOPC   C32 1284   0.220   5.575   5.521  1.0091 -0.1755  0.1047
   10DOPC   H2X 1285   0.222   5.496   5.443  1.2692  2.5850 -2.9059
   10DOPC   H2Y 1286   0.151   5.656   5.491 -1.0760 -1.2761  1.6764
   10DOPC   C23 1287  -0.204   5.772   5.417 -0.0102 -0.5716 -0.1005
   10DOPC   H3R 1288  -0.158   5.870   5.439  0.9419 -0.4096 -2.5424
   10DOPC   H3S 1289  -0.282   5.796   5.341  0.5665  2.9663  0.2896
   10DOPC   C24 1290  -0.110   5.680   5.335  0.0063  0.2683 -0.4437
   10DOPC   H4R 1291  -0.168   5.592   5.297  0.4801 -0.1698 -0.1580
   10DOPC   H4S 1292  -0.034   5.650   5.411 -0.4276  0.9066  0.2520
   10DOPC   C25 1293  -0.056   5.747   5.210 -0.1329 -0.1201  0.6530
   10DOPC   H5R 1294   0.001   5.839   5.233 -1.2441  0.8694 -0.3861
   10DOPC   H5S 1295  -0.141   5.762   5.140 -0.4653  0.7598  1.2367
   10DOPC   C26 1296   0.034   5.649   5.135  0.0078  0.1185  0.0707
   10DOPC   H6R 1297  -0.042   5.583   5.088 -1.3803  1.3497  0.5329
   10DOPC   H6S 1298   0.113   5.595   5.191  1.4615 -0.0040 -1.9744
   10DOPC   C27 1299   0.116   5.719   5.018 -0.1033  0.0266  0.1623
   10DOPC   H7R 1300   0.189   5.653   4.967  1.2150  0.1770  1.7342
   10DOPC   H7S 1301   0.181   5.792   5.072  0.0650  0.5786 -0.7724
   10DOPC   C28 1302   0.014   5.786   4.918  0.2272  0.4924 -0.3942
   10DOPC   H8R 1303   0.069   5.871   4.872  3.5520 -0.2363  1.8987
   10DOPC   H8S 1304  -0.071   5.835   4.970  0.2010  0.9995 -0.9063
   10DOPC   C29 1305  -0.038   5.686   4.821 -0.3736 -0.4975  0.4720
   10DOPC   H9R 1306  -0.129   5.630   4.847  0.7303 -1.7845  1.7300
   10DOPC  C210 1307   0.016   5.669   4.702  0.0906  0.2410  0.2711
   10DOPC  H10R 1308  -0.033   5.601   4.631  0.6205 -1.1981  1.2351
   10DOPC  C211 1309   0.144   5.734   4.648 -0.9719  0.0376 -0.1364
   10DOPC  H11R 1310   0.204   5.658   4.594  0.1972  0.5947  0.3374
   10DOPC  H11S 1311   0.210   5.763   4.733 -1.7329 -1.5608  1.0619
   10DOPC  C212 1312   0.124   5.864   4.563 -0.1951  0.3152 -0.7119
   10DOPC  H12R 1313   0.074   5.934   4.633  0.6310 -1.7910  2.2128
   10DOPC  H12S 1314   0.071   5.862   4.466 -0.8541  3.7000 -0.5493
   10DOPC  C213 1315   0.267   5.933   4.527  0.1395  0.1743 -0.2488
   10DOPC  H13R 1316   0.321   5.933   4.625  0.9251 -0.8218 -0.6636
   10DOPC  H13S 1317   0.246   6.040   4.504 -0.2687 -0.0401 -0.8932
   10DOPC  C214 1318   0.336   5.861   4.417 -0.0678 -0.3226  0.0216
   10DOPC  H14R 1319   0.283   5.866   4.319  2.0385  0.4903 -1.1244
   10DOPC  H14S 1320   0.347   5.755   4.449 -1.2560 -1.1196 -1.9811
   10DOPC  C215 1321   0.481   5.906   4.387 -0.1168 -0.2984  0.8899
   10DOPC  H15R 1322   0.519   5.829   4.316 -0.7012  0.3872 -0.1807
   10DOPC  H15S 1323   0.550   5.902   4.474  1.2358 -0.7704 -0.1607
   10DOPC  C216 1324   0.486   6.042   4.316 -0.6961  0.2793 -0.1780
   10DOPC  H16R 1325   0.594   6.053   4.289 -0.7096  0.1911 -0.2710
   10DOPC  H16S 1326   0.453   6.113   4.394 -1.7230  0.3796 -0.6961
   10DOPC  C217 1327   0.407   6.072   4.188 -0.3245  0.2012  0.4941
   10DOPC  H17R 1328   0.448   6.170   4.155 -1.0480  0.2250 -0.3908
   10DOPC  H17S 1329   0.297   6.086   4.201 -0.2233 -0.5554  2.4321
   10DOPC  C218 1330   0.434   5.970   4.076  0.0580 -0.3027  0.2653
   10DOPC  H18R 1331   0.431   5.864   4.108 -1.0540  0.2122  2.0216
   10DOPC  H18S 1332   0.538   5.992   4.042 -0.4880  2.6343  0.1878
   10DOPC  H18T 1333   0.364   5.988   3.992  1.3495 -3.2145 -1.5870
   10DOPC   C33 1334   0.363   5.637   5.521  0.2121 -0.3116 -0.0296
   10DOPC   H3X 1335   0.408   5.646   5.419  0.9608 -0.5557  0.2662
   10DOPC   H3Y 1336   0.426   5.559   5.569  0.4407 -0.0922  0.0260
   10DOPC   C34 1337   0.377   5.758   5.602 -0.4203 -1.1339 -0.1023
   10DOPC   H4X 1338   0.484   5.782   5.617 -0.9058  0.9351  0.4460
   10DOPC   H4Y 1339   0.326   5.750   5.700 -1.1206  1.7728 -0.1347
   10DOPC   C35 1340   0.311   5.889   5.547 -0.0212 -0.3858 -0.3286
   10DOPC   H5X 1341   0.355   5.970   5.609  0.0443  1.6489 -2.8685
   10DOPC   H5Y 1342   0.202   5.883   5.564 -0.0156 -1.3564 -0.5604
   10DOPC   C36 1343   0.343   5.920   5.404 -0.5606  0.5942 -0.5221
   10DOPC   H6X 1344   0.305   5.838   5.340 -0.2162 -0.3808  0.4851
   10DOPC   H6Y 1345   0.292   6.016   5.382 -0.9084  0.4060 -0.5547
   10DOPC   C37 1346   0.495   5.936   5.377  0.2854  0.4105 -0.0572
   10DOPC   H7X 1347   0.534   5.985   5.469 -1.3069  2.2348 -0.2965
   10DOPC   H7Y 1348   0.542   5.836   5.364 -1.4327 -0.4809  0.3435
   10DOPC   C38 1349   0.535   6.008   5.245  0.7956 -0.0952  0.6049
   10DOPC   H8X 1350   0.466   6.095   5.249 -2.0272 -2.1263 -0.8434
   10DOPC   H8Y 1351   0.495   5.954   5.158  0.3793  1.7293 -0.3987
   10DOPC   C39 1352   0.675   6.049   5.241  0.0872  0.2664  0.8752
   10DOPC   H9X 1353   0.717   6.112   5.321  3.3410  1.4162 -1.5636
   10DOPC  C310 1354   0.770   6.009   5.149 -0.1290 -0.7465  0.8385
   10DOPC  H10X 1355   0.875   6.041   5.157  0.6242 -2.2140 -1.7848
   10DOPC  C311 1356   0.752   5.913   5.037 -0.4301  0.5101  0.7836
   10DOPC  H11X 1357   0.696   5.823   5.069  0.8131  0.3091  2.5295
   10DOPC  H11Y 1358   0.856   5.875   5.021 -0.7996  0.2127 -1.2438
   10DOPC  C312 1359   0.694   5.978   4.907  0.1001 -0.3750  0.3574
   10DOPC  H12X 1360   0.749   6.071   4.882 -1.1845 -0.2730 -2.3766
   10DOPC  H12Y 1361   0.590   6.004   4.938 -0.4397 -0.6136 -1.1665
   10DOPC  C313 1362   0.705   5.886   4.781  0.3463 -0.6678 -0.1113
   10DOPC  H13X 1363   0.650   5.797   4.819 -0.3050  0.0271  0.6099
   10DOPC  H13Y 1364   0.650   5.928   4.694  0.0102  1.4356  1.0575
   10DOPC  C314 1365   0.849   5.847   4.743 -0.7638  0.2681 -0.1286
   10DOPC  H14X 1366   0.900   5.945   4.734 -1.8836  0.8189 -0.6530
   10DOPC  H14Y 1367   0.893   5.798   4.833  0.7760  1.1807 -0.3668
   10DOPC  C315 1368   0.864   5.756   4.626 -0.6197 -0.3790  1.1074
   10DOPC  H15X 1369   0.787   5.677   4.643 -1.7338  0.3032 -0.4999
   10DOPC  H15Y 1370   0.967   5.717   4.627 -0.7426 -0.7126  2.0251
   10DOPC  C316 1371   0.837   5.832   4.490  0.1729  0.1602 -0.9813
   10DOPC  H16X 1372   0.728   5.854   4.484 -0.1346  0.0151  2.2543
   10DOPC  H16Y 1373   0.899   5.923   4.495  0.5599 -0.1118  3.8393
   10DOPC  C317 1374   0.878   5.755   4.359  0.6453 -0.0503  0.7816
   10DOPC  H17X 1375   0.850   5.827   4.279 -0.1253 -1.4857 -0.2880
   10DOPC  H17Y 1376   0.989   5.749   4.352  0.5851 -1.2869  0.6758
   10DOPC  C318 1377   0.809   5.626   4.336 -0.1079 -0.0349  0.2104
   10DOPC  H18X 1378   0.827   5.557   4.421  2.2873 -1.9533 -1.6997
   10DOPC  H18Y 1379   0.699   5.636   4.321 -0.2910 -0.0658  1.4275
   10DOPC  H18Z 1380   0.847   5.573   4.246 -1.7891 -1.1151  0.0837
   11DOPC     N 1381   2.377   5.995   6.286 -0.0742  1.0422  0.0608
   11DOPC   C12 1382   2.448   6.128   6.250 -0.2081  0.9208 -0.0343
   11DOPC  H12A 1383   2.503   6.123   6.157 -0.6560  1.5963 -0.3411
   11DOPC  H12B 1384   2.513   6.151   6.333  0.3398  0.0512 -0.2090
   11DOPC   C13 1385   2.267   6.008   6.386  0.0328  0.2918 -0.3698
   11DOPC  H13A 1386   2.195   6.088   6.382  0.3292  0.9730  3.8637
   11DOPC  H13B 1387   2.208   5.920   6.405 -1.6006  1.4922  0.4191
   11DOPC  H13C 1388   2.310   6.018   6.484  0.7968  0.2748 -0.6984
   11DOPC   C14 1389   2.475   5.890   6.326 -0.1072 -0.6292  0.1317
   11DOPC  H14A 1390   2.415   5.802   6.345 -2.0077  0.4459 -0.6730
   11DOPC  H14B 1391   2.543   5.866   6.245  0.7876 -0.9544  0.9538
   11DOPC  H14C 1392   2.527   5.914   6.417 -1.5478 -1.0567  1.1073
   11DOPC   C15 1393   2.300   5.947   6.162 -0.1352  0.3742 -0.2585
   11DOPC  H15A 1394   2.369   5.917   6.084 -0.5100 -1.5975  0.1277
   11DOPC  H15B 1395   2.226   6.019   6.131  1.6140  1.5715 -1.9147
   11DOPC  H15C 1396   2.245   5.861   6.198 -1.7017  1.8640  1.0634
   11DOPC   C11 1397   2.359   6.250   6.228 -0.6791 -0.1437  0.2661
   11DOPC  H11A 1398   2.318   6.281   6.326 -1.2499  1.8581 -0.5542
   11DOPC  H11B 1399   2.433   6.329   6.201 -2.3854  0.4508 -3.4283
   11DOPC     P 1400   2.305   6.271   5.979 -0.4670  0.0329  0.0208
   11DOPC   O13 1401   2.272   6.416   5.972 -0.1493  0.0697 -0.0365
   11DOPC   O14 1402   2.233   6.183   5.887  0.3675  0.7674 -0.2296
   11DOPC   O12 1403   2.266   6.238   6.123 -0.1284 -0.8721  0.3263
   11DOPC   O11 1404   2.464   6.245   5.980  0.1901  0.1273 -0.4423
   11DOPC    C1 1405   2.559   6.342   5.940 -0.1208  0.2564  0.4523
   11DOPC    HA 1406   2.649   6.279   5.930 -0.5344 -0.6134  1.9666
   11DOPC    HB 1407   2.587   6.424   6.010  1.3379  2.0850 -2.0828
   11DOPC    C2 1408   2.540   6.390   5.800 -0.3839  0.2726  0.3994
   11DOPC    HS 1409   2.486   6.487   5.793  1.0383  1.2084  1.6991
   11DOPC   O21 1410   2.486   6.285   5.722 -0.2895 -0.6889  0.0239
   11DOPC   C21 1411   2.429   6.325   5.607  0.5123 -0.4169 -0.3797
   11DOPC   O22 1412   2.389   6.439   5.585 -0.2096 -0.2702 -0.4769
   11DOPC   C22 1413   2.411   6.198   5.519  0.2239  0.8372 -0.3868
   11DOPC   H2R 1414   2.303   6.172   5.518  0.0592  1.5053 -0.6108
   11DOPC   H2S 1415   2.466   6.110   5.558  1.0625  0.4537 -2.3447
   11DOPC    C3 1416   2.678   6.437   5.737 -0.2937  0.1097 -0.0278
   11DOPC    HX 1417   2.750   6.352   5.733 -1.5269 -1.0218  1.1024
   11DOPC    HY 1418   2.721   6.513   5.806  0.8249 -1.3017  0.8813
   11DOPC   O31 1419   2.669   6.497   5.605  0.0135  0.3233 -0.2067
   11DOPC   C31 1420   2.628   6.622   5.598  0.0660 -0.1153  0.3090
   11DOPC   O32 1421   2.593   6.692   5.692 -0.3819  0.5720  0.1468
   11DOPC   C32 1422   2.608   6.654   5.449 -0.5214  0.0572  0.1200
   11DOPC   H2X 1423   2.695   6.624   5.387 -2.0059  0.2749 -2.1538
   11DOPC   H2Y 1424   2.517   6.598   5.420  0.1882 -1.6313  1.0430
   11DOPC   C23 1425   2.447   6.218   5.369  0.6537 -0.5289  0.2357
   11DOPC   H3R 1426   2.443   6.322   5.331 -0.4534  0.3477  2.5886
   11DOPC   H3S 1427   2.371   6.159   5.314 -0.3392  1.4672 -0.6139
   11DOPC   C24 1428   2.588   6.161   5.348 -0.1446 -0.2642  0.3325
   11DOPC   H4R 1429   2.597   6.073   5.416  1.0118  0.7777  1.5831
   11DOPC   H4S 1430   2.662   6.240   5.372 -1.1750  0.6202  0.6606
   11DOPC   C25 1431   2.616   6.126   5.204 -0.0369  0.2852  0.3343
   11DOPC   H5R 1432   2.531   6.073   5.155 -0.5418  0.9345  0.4794
   11DOPC   H5S 1433   2.707   6.063   5.198  1.0482  1.9235 -1.7364
   11DOPC   C26 1434   2.651   6.250   5.116 -0.9076 -0.3405 -0.8835
   11DOPC   H6R 1435   2.731   6.309   5.166 -0.6013 -1.2937 -0.2386
   11DOPC   H6S 1436   2.563   6.310   5.082 -1.4805  0.0352  1.1519
   11DOPC   C27 1437   2.726   6.212   4.989  0.2003 -0.3784  0.2251
   11DOPC   H7R 1438   2.817   6.169   5.034  0.4362  0.0112  0.1264
   11DOPC   H7S 1439   2.740   6.309   4.936 -0.6168  0.7005  1.9115
   11DOPC   C28 1440   2.661   6.109   4.896  0.4260 -0.7470  0.6205
   11DOPC   H8R 1441   2.641   6.017   4.956  0.2253  0.5072  2.5872
   11DOPC   H8S 1442   2.737   6.089   4.818 -2.6072 -2.6420 -2.0880
   11DOPC   C29 1443   2.531   6.165   4.836  0.2882 -0.0070  0.4883
   11DOPC   H9R 1444   2.446   6.190   4.901  0.1006  0.6706 -0.0070
   11DOPC  C210 1445   2.505   6.158   4.700 -0.3682 -0.1495 -0.0534
   11DOPC  H10R 1446   2.412   6.204   4.663 -0.3605 -0.3328 -0.3040
   11DOPC  C211 1447   2.610   6.120   4.599 -0.0131 -0.0004  0.4400
   11DOPC  H11R 1448   2.561   6.092   4.503 -0.4404 -2.4054  1.2922
   11DOPC  H11S 1449   2.661   6.024   4.625  1.0811  0.1629 -0.9947
   11DOPC  C212 1450   2.708   6.239   4.570  0.0290  0.4680 -0.1322
   11DOPC  H12R 1451   2.763   6.276   4.659  1.1766  0.5906 -0.8615
   11DOPC  H12S 1452   2.651   6.326   4.533 -0.3613  0.9249  1.4776
   11DOPC  C213 1453   2.809   6.205   4.463 -0.1155  0.0999 -0.2019
   11DOPC  H13R 1454   2.756   6.142   4.389  0.1941 -0.3472 -0.0466
   11DOPC  H13S 1455   2.882   6.137   4.512 -0.4219 -1.6661 -2.0858
   11DOPC  C214 1456   2.874   6.332   4.408  0.3864 -0.0303 -0.4950
   11DOPC  H14R 1457   2.945   6.371   4.483  2.3458  1.0277 -2.7515
   11DOPC  H14S 1458   2.797   6.412   4.397 -2.0802 -2.1864  0.0833
   11DOPC  C215 1459   2.949   6.319   4.270 -0.6931  0.6782 -0.3396
   11DOPC  H15R 1460   3.036   6.251   4.280 -0.9073  0.7843  3.1615
   11DOPC  H15S 1461   2.987   6.419   4.239  0.2752  0.5109  0.2674
   11DOPC  C216 1462   2.856   6.260   4.166  0.5543 -0.4686  0.5210
   11DOPC  H16R 1463   2.766   6.323   4.150 -0.3481 -2.0257 -0.8202
   11DOPC  H16S 1464   2.817   6.160   4.194 -0.2191 -0.7652 -1.4402
   11DOPC  C217 1465   2.929   6.223   4.037 -0.1687 -0.0907  0.1472
   11DOPC  H17R 1466   2.977   6.123   4.046  0.3138  0.1413  0.2126
   11DOPC  H17S 1467   3.003   6.303   4.014  1.0329 -0.8987  1.0092
   11DOPC  C218 1468   2.830   6.194   3.922 -0.3532  0.4841  0.0134
   11DOPC  H18R 1469   2.894   6.153   3.841  2.4043  0.1167  2.2400
   11DOPC  H18S 1470   2.782   6.290   3.894 -0.1371  0.5535 -0.1249
   11DOPC  H18T 1471   2.756   6.116   3.949 -1.1218  0.0527 -2.9278
   11DOPC   C33 1472   2.586   6.805   5.422 -0.3494 -0.2876  0.1418
   11DOPC   H3X 1473   2.678   6.865   5.432 -1.0467  0.4466  3.0204
   11DOPC   H3Y 1474   2.506   6.845   5.487  1.5521  2.2813  1.0372
   11DOPC   C34 1475   2.532   6.832   5.277 -0.5164  0.0246 -0.3761
   11DOPC   H4X 1476   2.511   6.941   5.279 -2.1156 -0.2548 -0.6364
   11DOPC   H4Y 1477   2.431   6.786   5.272 -0.5376 -0.0481  0.6639
   11DOPC   C35 1478   2.627   6.782   5.166  0.2153 -0.0395  0.1397
   11DOPC   H5X 1479   2.731   6.771   5.202  0.7568 -0.5169 -1.4725
   11DOPC   H5Y 1480   2.627   6.861   5.088  2.7971  0.1950  0.2877
   11DOPC   C36 1481   2.574   6.649   5.100 -0.1616 -0.3581  0.1875
   11DOPC   H6X 1482   2.584   6.558   5.163  1.4016 -1.4442 -1.5077
   11DOPC   H6Y 1483   2.467   6.665   5.078 -0.1596  3.2120  2.0343
   11DOPC   C37 1484   2.642   6.599   4.975  0.5463 -0.0530  0.8167
   11DOPC   H7X 1485   2.745   6.565   4.999  1.3424  1.2209 -0.6193
   11DOPC   H7Y 1486   2.586   6.508   4.944  0.0473  1.8447 -5.2511
   11DOPC   C38 1487   2.640   6.695   4.859 -0.0940  0.1740 -0.0816
   11DOPC   H8X 1488   2.694   6.788   4.889 -0.1897 -0.2662  1.5570
   11DOPC   H8Y 1489   2.536   6.729   4.844 -0.7826 -0.9056  1.9562
   11DOPC   C39 1490   2.695   6.630   4.735 -0.3014 -0.8569  0.6879
   11DOPC   H9X 1491   2.804   6.615   4.740  0.2047  1.9266 -0.2748
   11DOPC  C310 1492   2.621   6.597   4.622  0.4012 -0.1663  0.1794
   11DOPC  H10X 1493   2.673   6.552   4.537 -1.7450  0.3850 -1.5125
   11DOPC  C311 1494   2.470   6.601   4.615 -0.4510 -0.2533  0.3402
   11DOPC  H11X 1495   2.440   6.702   4.648 -0.5080  0.0247 -0.5494
   11DOPC  H11Y 1496   2.411   6.534   4.681 -0.5464  0.7302  1.2784
   11DOPC  C312 1497   2.421   6.593   4.471  0.8033  0.1464  0.0994
   11DOPC  H12X 1498   2.470   6.665   4.401  0.4166  1.0446  0.7355
   11DOPC  H12Y 1499   2.312   6.612   4.483  0.9470  1.3870 -0.3795
   11DOPC  C313 1500   2.444   6.460   4.405  0.1181  0.1147 -0.1044
   11DOPC  H13X 1501   2.547   6.466   4.364  0.4127  0.5388  0.6690
   11DOPC  H13Y 1502   2.434   6.384   4.486  1.5940 -1.1760 -1.0711
   11DOPC  C314 1503   2.354   6.432   4.284 -0.0366 -0.1539 -0.0757
   11DOPC  H14X 1504   2.248   6.448   4.313 -0.0199 -0.4662  0.1686
   11DOPC  H14Y 1505   2.376   6.510   4.208  1.5008 -0.8694 -0.4146
   11DOPC  C315 1506   2.372   6.286   4.225 -0.2158  0.0551  0.6369
   11DOPC  H15X 1507   2.370   6.217   4.312  0.0592 -0.6900  0.0582
   11DOPC  H15Y 1508   2.475   6.286   4.182 -0.5972 -0.1818 -0.2923
   11DOPC  C316 1509   2.262   6.235   4.130  0.6151  0.7555 -0.0473
   11DOPC  H16X 1510   2.163   6.243   4.180 -0.5880 -0.0119 -2.2029
   11DOPC  H16Y 1511   2.250   6.294   4.037  0.0836  1.6626  0.5779
   11DOPC  C317 1512   2.294   6.093   4.083 -0.1591  0.5039 -0.6885
   11DOPC  H17X 1513   2.397   6.091   4.042 -0.2281  0.9301 -0.8911
   11DOPC  H17Y 1514   2.290   6.035   4.178 -1.4982 -0.6269 -1.3830
   11DOPC  C318 1515   2.191   6.042   3.979  0.0829 -0.1634 -0.1682
   11DOPC  H18X 1516   2.212   5.933   3.969  0.5030 -0.3098  1.9921
   11DOPC  H18Y 1517   2.086   6.052   4.016  0.0996 -2.3655  0.6464
   11DOPC  H18Z 1518   2.203   6.101   3.885  0.9256  0.1718  0.1509
   12DOPC     N 1519   4.952   2.437   6.214  0.1628 -0.1523 -0.2496
   12DOPC   C12 1520   4.998   2.474   6.073 -0.3270 -0.5914  0.3145
   12DOPC  H12A 1521   5.105   2.455   6.067  0.2169  2.0637  0.5102
   12DOPC  H12B 1522   5.001   2.581   6.068 -0.7443 -0.5435  0.9393
   12DOPC   C13 1523   4.966   2.289   6.251  0.4170 -0.3192  0.3364
   12DOPC  H13A 1524   4.956   2.269   6.357  0.8810  0.0354  0.4494
   12DOPC  H13B 1525   4.906   2.225   6.188 -0.5695  0.1308  0.7976
   12DOPC  H13C 1526   5.062   2.249   6.221 -0.1387 -0.7186 -0.9604
   12DOPC   C14 1527   4.810   2.483   6.232 -0.6482 -0.5578  0.2108
   12DOPC  H14A 1528   4.776   2.464   6.333  0.4421  2.0267  1.1428
   12DOPC  H14B 1529   4.793   2.588   6.219 -2.2271 -0.7191  0.8153
   12DOPC  H14C 1530   4.747   2.436   6.158  0.3060 -0.5444 -0.6315
   12DOPC   C15 1531   5.046   2.517   6.303 -0.0096 -0.6044 -0.2376
   12DOPC  H15A 1532   5.145   2.475   6.300  0.4367  0.4477 -2.4278
   12DOPC  H15B 1533   5.018   2.534   6.406 -0.3672  0.7594 -0.5411
   12DOPC  H15C 1534   5.045   2.618   6.263  0.1578 -0.3821  0.3087
   12DOPC   C11 1535   4.928   2.428   5.951 -0.2499 -0.1572 -0.0421
   12DOPC  H11A 1536   4.995   2.451   5.866 -0.3709 -0.0055 -0.0970
   12DOPC  H11B 1537   4.911   2.318   5.957  1.1636 -0.3646  0.6408
   12DOPC     P 1538   4.782   2.628   5.858 -0.1536 -0.0519 -0.0777
   12DOPC   O13 1539   4.876   2.721   5.923  0.1134 -0.5490  0.1384
   12DOPC   O14 1540   4.641   2.673   5.856  0.3594  0.7408 -0.0374
   12DOPC   O12 1541   4.802   2.487   5.926  0.2017  0.4723  0.1070
   12DOPC   O11 1542   4.823   2.597   5.712  0.2296  0.4517  0.0934
   12DOPC    C1 1543   4.775   2.485   5.636 -0.4818  0.3208  0.0089
   12DOPC    HA 1544   4.664   2.484   5.632 -0.5605 -2.6788  0.3209
   12DOPC    HB 1545   4.808   2.387   5.676 -1.2243 -0.4988 -1.3028
   12DOPC    C2 1546   4.843   2.490   5.490 -0.4303  0.3800 -0.0624
   12DOPC    HS 1547   4.841   2.383   5.460 -0.6125 -0.1940  1.8239
   12DOPC   O21 1548   4.978   2.540   5.491  0.3558 -0.2151 -0.2276
   12DOPC   C21 1549   5.066   2.484   5.571 -0.2023 -0.6579 -0.0363
   12DOPC   O22 1550   5.057   2.384   5.634 -0.3497  0.2568  0.1712
   12DOPC   C22 1551   5.187   2.579   5.568 -0.0762 -0.0420  0.0952
   12DOPC   H2R 1552   5.192   2.609   5.675 -1.2443 -1.0099  0.4458
   12DOPC   H2S 1553   5.164   2.667   5.503  1.0087  1.0618  1.1548
   12DOPC    C3 1554   4.758   2.574   5.388 -0.3289  0.4866  0.4834
   12DOPC    HX 1555   4.815   2.669   5.384  2.1800 -0.8317  2.1007
   12DOPC    HY 1556   4.658   2.588   5.435 -0.0006 -1.4317  1.9065
   12DOPC   O31 1557   4.746   2.518   5.259  0.5037  0.3392  0.8336
   12DOPC   C31 1558   4.674   2.592   5.179  0.1699 -0.1331 -0.2812
   12DOPC   O32 1559   4.643   2.706   5.200 -0.4655 -0.6433 -0.3137
   12DOPC   C32 1560   4.632   2.514   5.061  0.4081  0.0825 -0.5507
   12DOPC   H2X 1561   4.720   2.459   5.021  0.8490  0.6924 -0.4458
   12DOPC   H2Y 1562   4.572   2.427   5.095  0.4099 -0.0901 -0.9773
   12DOPC   C23 1563   5.310   2.500   5.528  0.4813  0.1178 -0.9163
   12DOPC   H3R 1564   5.318   2.419   5.604  0.3784 -0.7798 -1.8491
   12DOPC   H3S 1565   5.394   2.568   5.554 -0.6733  0.4597  2.4219
   12DOPC   C24 1566   5.308   2.445   5.383 -0.2718 -0.4670 -0.5174
   12DOPC   H4R 1567   5.383   2.494   5.318 -0.7270 -1.2042 -1.6271
   12DOPC   H4S 1568   5.219   2.480   5.327  0.0401  1.7408  0.2772
   12DOPC   C25 1569   5.302   2.293   5.371 -0.2817  0.0082  0.2214
   12DOPC   H5R 1570   5.226   2.251   5.441  0.4822 -0.9449  0.5012
   12DOPC   H5S 1571   5.395   2.240   5.403 -0.7333 -0.0864  1.4605
   12DOPC   C26 1572   5.275   2.242   5.227 -0.1521 -0.1287  0.9413
   12DOPC   H6R 1573   5.180   2.283   5.187  0.3061 -1.0500 -1.1672
   12DOPC   H6S 1574   5.266   2.132   5.222 -0.7347 -0.0267 -0.5846
   12DOPC   C27 1575   5.384   2.283   5.134 -0.0078 -0.0340 -0.0534
   12DOPC   H7R 1576   5.474   2.226   5.165 -0.0118  0.7935  1.6134
   12DOPC   H7S 1577   5.405   2.392   5.141 -1.3901  0.5032 -2.8130
   12DOPC   C28 1578   5.364   2.245   4.985 -0.2044  0.4028 -0.1195
   12DOPC   H8R 1579   5.274   2.297   4.948 -0.9650  0.0444  1.1440
   12DOPC   H8S 1580   5.332   2.138   4.985  0.0592  0.3188 -0.8560
   12DOPC   C29 1581   5.487   2.265   4.900 -0.1230 -0.7216 -0.0797
   12DOPC   H9R 1582   5.530   2.364   4.921 -0.9314 -0.1724 -0.9180
   12DOPC  C210 1583   5.547   2.186   4.817  0.0005  0.7514 -0.2133
   12DOPC  H10R 1584   5.634   2.227   4.763 -0.4879  2.1402  0.0150
   12DOPC  C211 1585   5.519   2.040   4.778  0.5251  0.2786 -0.1692
   12DOPC  H11R 1586   5.514   1.982   4.872  2.5386  2.3669  1.3474
   12DOPC  H11S 1587   5.613   2.018   4.723  0.3050 -0.7438 -0.1496
   12DOPC  C212 1588   5.409   2.019   4.680  0.2445  1.0308  0.3036
   12DOPC  H12R 1589   5.428   1.921   4.630  1.2393  1.1354  0.4498
   12DOPC  H12S 1590   5.415   2.095   4.599  0.0028 -0.5127 -1.2495
   12DOPC  C213 1591   5.267   2.017   4.741  0.3740 -0.0128 -0.3807
   12DOPC  H13R 1592   5.229   2.122   4.748  1.6785  0.4571 -0.1666
   12DOPC  H13S 1593   5.260   1.975   4.844  0.2304 -2.6107 -1.3733
   12DOPC  C214 1594   5.161   1.941   4.650  0.7294  0.6244 -0.8508
   12DOPC  H14R 1595   5.067   1.941   4.709  1.2381  0.4330 -0.0148
   12DOPC  H14S 1596   5.187   1.833   4.644  2.0934  0.8335  0.6271
   12DOPC  C215 1597   5.146   1.998   4.510 -0.4913 -0.1650 -0.1193
   12DOPC  H15R 1598   5.250   2.014   4.476 -0.4122  0.5225  0.4244
   12DOPC  H15S 1599   5.101   2.100   4.516  0.7777  0.3223  1.5578
   12DOPC  C216 1600   5.087   1.901   4.404  0.4078 -0.1209 -0.5500
   12DOPC  H16R 1601   5.135   1.803   4.424  0.3183  0.2996  2.1255
   12DOPC  H16S 1602   5.128   1.940   4.308  0.2585  1.7451  0.1082
   12DOPC  C217 1603   4.937   1.896   4.383 -0.2394  0.0023  0.5185
   12DOPC  H17R 1604   4.891   1.872   4.482 -0.7269 -0.5913  0.1548
   12DOPC  H17S 1605   4.921   1.811   4.313  1.1578 -1.9583  2.4128
   12DOPC  C218 1606   4.872   2.018   4.321 -0.1615  0.7971 -0.5065
   12DOPC  H18R 1607   4.899   2.109   4.379 -0.5576  1.7772 -1.8229
   12DOPC  H18S 1608   4.763   2.015   4.300  0.2132 -0.3899 -2.5225
   12DOPC  H18T 1609   4.910   2.034   4.218  0.3005 -1.4259 -0.7272
   12DOPC   C33 1610   4.556   2.585   4.944  1.0041  0.3208  0.2158
   12DOPC   H3X 1611   4.480   2.656   4.981  1.0022  0.9117 -0.8561
   12DOPC   H3Y 1612   4.507   2.517   4.871 -2.9782  1.4420  1.5830
   12DOPC   C34 1613   4.631   2.677   4.854 -0.1392  0.0630  0.6063
   12DOPC   H4X 1614   4.691   2.619   4.781 -1.2056  1.1298 -1.2099
   12DOPC   H4Y 1615   4.696   2.737   4.920  1.3507 -0.3262 -0.4596
   12DOPC   C35 1616   4.547   2.768   4.767 -0.2986  0.8715 -0.4656
   12DOPC   H5X 1617   4.532   2.859   4.830 -0.5948  0.4502  0.0814
   12DOPC   H5Y 1618   4.449   2.726   4.737  0.0390  0.8963 -1.6377
   12DOPC   C36 1619   4.608   2.813   4.632 -0.0876  0.2222 -0.0925
   12DOPC   H6X 1620   4.711   2.838   4.665  0.5960 -2.4382 -0.0267
   12DOPC   H6Y 1621   4.599   2.719   4.574 -0.7038 -1.8502  3.1003
   12DOPC   C37 1622   4.527   2.918   4.569  0.4331  0.0524 -0.0060
   12DOPC   H7X 1623   4.430   2.872   4.542  0.1720  0.7862 -0.3610
   12DOPC   H7Y 1624   4.514   3.001   4.641  0.4264 -1.3492  1.6582
   12DOPC   C38 1625   4.610   2.983   4.455  0.6099  0.0654  0.5955
   12DOPC   H8X 1626   4.704   3.008   4.508  0.2819 -0.2009  1.3282
   12DOPC   H8Y 1627   4.561   3.077   4.420 -0.4367 -0.8893 -0.5922
   12DOPC   C39 1628   4.632   2.893   4.333 -0.2205  0.2182  0.0711
   12DOPC   H9X 1629   4.541   2.840   4.301 -1.9140  0.6654  3.6122
   12DOPC  C310 1630   4.753   2.872   4.274 -0.6289  0.3206  0.3134
   12DOPC  H10X 1631   4.764   2.813   4.183  0.4798  0.0858  0.5943
   12DOPC  C311 1632   4.887   2.913   4.332 -0.2392  0.9264  0.6807
   12DOPC  H11X 1633   4.886   2.957   4.434 -2.5162  2.6134  0.0193
   12DOPC  H11Y 1634   4.934   2.996   4.276 -1.3930  2.0193  1.2845
   12DOPC  C312 1635   4.992   2.792   4.332 -0.3052  0.1496  0.0318
   12DOPC  H12X 1636   5.094   2.823   4.362 -1.1521  1.7862  1.3836
   12DOPC  H12Y 1637   5.010   2.747   4.232 -0.9605  0.1572 -0.0931
   12DOPC  C313 1638   4.940   2.686   4.433 -0.8450  0.1957 -0.9967
   12DOPC  H13X 1639   4.933   2.743   4.528  1.0686  0.3259 -0.9043
   12DOPC  H13Y 1640   4.851   2.626   4.403  0.6432 -1.6193 -1.9885
   12DOPC  C314 1641   5.047   2.572   4.462  0.2682 -0.9690  0.1128
   12DOPC  H14X 1642   5.143   2.620   4.490 -0.5328  1.9690 -1.6529
   12DOPC  H14Y 1643   5.009   2.509   4.545 -1.2175 -1.9390 -1.2445
   12DOPC  C315 1644   5.070   2.477   4.337  0.9189  0.3607  0.6878
   12DOPC  H15X 1645   5.083   2.542   4.247 -3.8475 -1.4327 -1.6765
   12DOPC  H15Y 1646   4.983   2.410   4.320 -0.1958  1.3120  2.3358
   12DOPC  C316 1647   5.191   2.391   4.347 -0.1350 -0.3492 -0.1697
   12DOPC  H16X 1648   5.278   2.460   4.353 -0.9020  0.6409 -0.1514
   12DOPC  H16Y 1649   5.206   2.328   4.437  4.9962  1.0213  0.2372
   12DOPC  C317 1650   5.196   2.299   4.225  0.0784 -0.2461 -0.3339
   12DOPC  H17X 1651   5.128   2.213   4.236 -1.0526  0.5931 -0.6000
   12DOPC  H17Y 1652   5.164   2.356   4.135  0.7515  1.2399  0.3206
   12DOPC  C318 1653   5.337   2.249   4.198  0.1462  0.1908  0.4023
   12DOPC  H18X 1654   5.340   2.211   4.094  1.8110  1.5768 -0.1069
   12DOPC  H18Y 1655   5.408   2.334   4.207  0.1939  0.0613  1.3677
   12DOPC  H18Z 1656   5.354   2.162   4.265 -1.8570 -1.2213 -0.8143
   13DOPC     N 1657   1.847   1.518   4.646 -0.3042 -0.3023 -0.2905
   13DOPC   C12 1658   1.961   1.571   4.559 -0.3517  0.2987 -0.1764
   13DOPC  H12A 1659   1.926   1.664   4.517  2.0537  1.5683  0.4512
   13DOPC  H12B 1660   1.978   1.506   4.474 -2.3681  0.0546 -0.4352
   13DOPC   C13 1661   1.803   1.618   4.740 -0.1194  0.2054 -0.3676
   13DOPC  H13A 1662   1.720   1.580   4.797 -0.2665  0.5902 -0.3241
   13DOPC  H13B 1663   1.888   1.654   4.796  0.5054  0.0648 -1.2071
   13DOPC  H13C 1664   1.765   1.708   4.693  0.2384  1.6311  1.9327
   13DOPC   C14 1665   1.883   1.389   4.716  0.5219  0.2058  0.1115
   13DOPC  H14A 1666   1.968   1.408   4.780 -1.1766  1.5252  2.1205
   13DOPC  H14B 1667   1.803   1.357   4.781  0.5578  0.8693  0.4886
   13DOPC  H14C 1668   1.917   1.325   4.636 -0.2380  1.6481 -1.4365
   13DOPC   C15 1669   1.721   1.489   4.558 -0.2852 -0.0302  0.3448
   13DOPC  H15A 1670   1.705   1.575   4.494  1.4468  0.3170  0.3362
   13DOPC  H15B 1671   1.636   1.469   4.622  0.1691  2.3005  1.8114
   13DOPC  H15C 1672   1.740   1.408   4.490 -1.9144  0.2015 -0.4341
   13DOPC   C11 1673   2.100   1.597   4.628 -0.0101  0.2277  0.0463
   13DOPC  H11A 1674   2.144   1.494   4.631 -1.7959 -0.6096 -0.9423
   13DOPC  H11B 1675   2.167   1.664   4.570  0.4181 -0.0970  0.1532
   13DOPC     P 1676   2.212   1.612   4.861 -0.1369  0.3561 -0.1291
   13DOPC   O13 1677   2.187   1.474   4.909  0.2996 -0.0716  0.4473
   13DOPC   O14 1678   2.231   1.721   4.957  0.1740 -0.1731  0.4562
   13DOPC   O12 1679   2.092   1.654   4.759 -0.0703  0.1385 -0.0921
   13DOPC   O11 1680   2.330   1.600   4.770  0.1063  0.1797  0.1621
   13DOPC    C1 1681   2.476   1.610   4.787  0.9307  0.7459  0.3483
   13DOPC    HA 1682   2.509   1.510   4.820 -1.9604 -0.8584 -1.1649
   13DOPC    HB 1683   2.506   1.678   4.869  0.4093  0.6077  0.6592
   13DOPC    C2 1684   2.544   1.662   4.658 -0.2310 -0.3499 -0.7415
   13DOPC    HS 1685   2.506   1.765   4.640  2.2058  0.4562 -1.6891
   13DOPC   O21 1686   2.526   1.575   4.539 -0.2733 -0.0431  0.0229
   13DOPC   C21 1687   2.507   1.631   4.419  0.2655 -0.3792  1.2744
   13DOPC   O22 1688   2.480   1.751   4.398  0.1379  0.3244  0.2386
   13DOPC   C22 1689   2.515   1.524   4.306 -0.2621 -0.5259  0.9152
   13DOPC   H2R 1690   2.411   1.494   4.285  0.5556 -1.4220 -2.3309
   13DOPC   H2S 1691   2.565   1.434   4.348 -0.3465 -0.9006  0.2229
   13DOPC    C3 1692   2.696   1.676   4.685 -0.1575  0.2773 -0.6146
   13DOPC    HX 1693   2.746   1.581   4.713 -2.2165 -0.4120  0.9189
   13DOPC    HY 1694   2.717   1.740   4.773 -0.1330  0.6101 -0.8604
   13DOPC   O31 1695   2.766   1.729   4.569 -0.1727  0.3093 -0.1749
   13DOPC   C31 1696   2.794   1.852   4.556  0.1898 -0.3510  0.1558
   13DOPC   O32 1697   2.776   1.937   4.645  0.4565 -0.3123  0.3352
   13DOPC   C32 1698   2.866   1.877   4.418  0.7303  0.4235  0.5387
   13DOPC   H2X 1699   2.947   1.803   4.401  0.1237  0.3717 -2.5454
   13DOPC   H2Y 1700   2.786   1.866   4.342  1.3173 -0.6379  0.0633
   13DOPC   C23 1701   2.580   1.575   4.179  0.0602  0.0346  1.4497
   13DOPC   H3R 1702   2.686   1.606   4.196 -0.1370  0.6523  1.5634
   13DOPC   H3S 1703   2.518   1.653   4.132  0.4459 -0.9394 -0.7863
   13DOPC   C24 1704   2.598   1.461   4.073  0.8170  0.0406  0.0548
   13DOPC   H4R 1705   2.598   1.512   3.974 -0.3218  0.4584  0.2505
   13DOPC   H4S 1706   2.509   1.394   4.073  0.5580  0.3707 -0.4496
   13DOPC   C25 1707   2.728   1.389   4.087  1.2359 -0.1570  0.1604
   13DOPC   H5R 1708   2.750   1.370   4.194  0.7798  2.0871  0.7005
   13DOPC   H5S 1709   2.808   1.451   4.042 -0.0308 -0.0606 -2.1049
   13DOPC   C26 1710   2.727   1.255   4.016 -0.0773  0.3195 -0.2826
   13DOPC   H6R 1711   2.736   1.255   3.905  2.7148 -0.8132 -0.1282
   13DOPC   H6S 1712   2.635   1.201   4.045  1.8337 -1.3800  3.1859
   13DOPC   C27 1713   2.843   1.165   4.070 -0.0279 -0.0093  0.3820
   13DOPC   H7R 1714   2.807   1.165   4.175 -2.3936  0.6071 -0.3562
   13DOPC   H7S 1715   2.944   1.207   4.049 -0.8225  1.1722 -1.2987
   13DOPC   C28 1716   2.840   1.016   4.025  0.8394 -0.0386  0.0896
   13DOPC   H8R 1717   2.748   0.971   4.067  0.9489 -2.7968 -2.2906
   13DOPC   H8S 1718   2.921   0.956   4.070 -0.9790 -3.4140 -0.7951
   13DOPC   C29 1719   2.842   0.987   3.879  0.3838 -0.0175  0.6444
   13DOPC   H9R 1720   2.917   1.052   3.830 -0.7479  0.2641 -0.7678
   13DOPC  C210 1721   2.733   0.942   3.810 -0.3770 -0.2002 -0.2684
   13DOPC  H10R 1722   2.735   0.931   3.700 -1.2215 -2.2567 -0.1239
   13DOPC  C211 1723   2.598   0.893   3.863  0.1622 -0.6495  0.3579
   13DOPC  H11R 1724   2.517   0.876   3.789  0.1349  0.0393  0.2295
   13DOPC  H11S 1725   2.561   0.958   3.945  1.6316  1.0441 -0.2686
   13DOPC  C212 1726   2.601   0.758   3.933 -0.5822 -0.3993 -0.7948
   13DOPC  H12R 1727   2.671   0.761   4.019  1.4514  0.6527 -2.3965
   13DOPC  H12S 1728   2.647   0.685   3.862  2.4193 -0.0560  0.6355
   13DOPC  C213 1729   2.458   0.719   3.977 -0.8688 -0.1985 -0.5996
   13DOPC  H13R 1730   2.390   0.702   3.892 -1.2077 -0.0291 -0.3646
   13DOPC  H13S 1731   2.412   0.804   4.032 -1.8624  0.5149 -2.4530
   13DOPC  C214 1732   2.463   0.607   4.080  0.0680 -0.5356 -0.1238
   13DOPC  H14R 1733   2.497   0.636   4.182 -0.6127 -1.6134  0.4290
   13DOPC  H14S 1734   2.530   0.528   4.040 -0.5132 -1.3545  0.4857
   13DOPC  C215 1735   2.329   0.532   4.100  0.5413 -0.7606 -0.9800
   13DOPC  H15R 1736   2.281   0.513   4.002 -1.1548 -1.4443 -0.0497
   13DOPC  H15S 1737   2.262   0.604   4.153  2.9864  0.4321  0.6874
   13DOPC  C216 1738   2.338   0.408   4.178  0.4322 -0.2577  0.2947
   13DOPC  H16R 1739   2.377   0.424   4.281  1.0861 -0.5997  0.1085
   13DOPC  H16S 1740   2.404   0.337   4.124  0.0795 -1.4792  1.4039
   13DOPC  C217 1741   2.204   0.319   4.177  0.0755 -0.8661 -0.5083
   13DOPC  H17R 1742   2.166   0.317   4.073  0.4416 -1.3049 -0.6388
   13DOPC  H17S 1743   2.131   0.376   4.238  0.2241  0.9168 -1.8826
   13DOPC  C218 1744   2.215   0.185   4.234  0.2799  0.7949  0.2225
   13DOPC  H18R 1745   2.122   0.137   4.197  0.5330  1.5678 -1.4889
   13DOPC  H18S 1746   2.214   0.180   4.345 -0.6054 -1.8669  0.1748
   13DOPC  H18T 1747   2.306   0.127   4.209  1.7061  1.8288  2.6758
   13DOPC   C33 1748   2.936   2.026   4.414 -0.1917 -0.4981  0.2620
   13DOPC   H3X 1749   3.036   2.034   4.462 -1.3697  2.5657  2.5608
   13DOPC   H3Y 1750   2.865   2.088   4.472  1.3329 -0.7879  2.5667
   13DOPC   C34 1751   2.949   2.069   4.270 -0.4393 -0.1728  0.4008
   13DOPC   H4X 1752   2.946   2.180   4.272 -0.7591 -0.1782  2.8365
   13DOPC   H4Y 1753   2.866   2.036   4.203  0.3067  1.0624 -1.2236
   13DOPC   C35 1754   3.084   2.007   4.203  0.9519  0.7712  0.2479
   13DOPC   H5X 1755   3.174   2.037   4.260 -0.3422  1.4621  2.0340
   13DOPC   H5Y 1756   3.083   2.074   4.114 -0.6852  0.5112  0.0347
   13DOPC   C36 1757   3.079   1.858   4.146  0.6073 -0.6498  0.5372
   13DOPC   H6X 1758   3.169   1.845   4.082 -0.3389  0.8591 -1.2011
   13DOPC   H6Y 1759   3.075   1.792   4.235 -1.8798 -0.3506  0.7299
   13DOPC   C37 1760   2.951   1.819   4.059  0.1091 -0.0812 -0.7465
   13DOPC   H7X 1761   2.859   1.835   4.119  0.4166 -1.2873  0.0689
   13DOPC   H7Y 1762   2.946   1.896   3.978 -0.9134  0.5251 -0.1311
   13DOPC   C38 1763   2.965   1.686   3.987 -0.6107  0.0757  0.0887
   13DOPC   H8X 1764   2.971   1.605   4.063 -1.9432 -0.9682 -0.8598
   13DOPC   H8Y 1765   3.062   1.689   3.932  0.0485  0.0098  1.2168
   13DOPC   C39 1766   2.851   1.660   3.892 -0.2022 -0.3182 -0.7414
   13DOPC   H9X 1767   2.755   1.633   3.939 -0.6755 -3.4267 -3.1378
   13DOPC  C310 1768   2.849   1.682   3.759 -0.2341 -0.7906  0.1219
   13DOPC  H10X 1769   2.753   1.681   3.705 -1.2859  1.6899  1.7441
   13DOPC  C311 1770   2.956   1.741   3.671  0.0444 -0.6043  0.0215
   13DOPC  H11X 1771   3.061   1.708   3.684  1.3344  3.1736  0.3785
   13DOPC  H11Y 1772   2.967   1.847   3.701  2.5998 -1.3170  1.8773
   13DOPC  C312 1773   2.917   1.730   3.521  0.2295 -0.6535  0.3678
   13DOPC  H12X 1774   2.991   1.787   3.460 -0.1603 -2.1705 -1.6226
   13DOPC  H12Y 1775   2.813   1.768   3.515  0.1259 -1.1256 -3.3133
   13DOPC  C313 1776   2.927   1.583   3.469  0.1723 -0.3143  0.0214
   13DOPC  H13X 1777   3.021   1.539   3.508  0.3163 -0.4461 -0.4684
   13DOPC  H13Y 1778   2.856   1.508   3.511  0.6796 -0.0959  1.3086
   13DOPC  C314 1779   2.930   1.569   3.314  0.9145 -0.0978 -0.3391
   13DOPC  H14X 1780   2.825   1.590   3.283  0.5136 -0.3553  0.7701
   13DOPC  H14Y 1781   3.000   1.637   3.262  0.6220 -0.2785 -0.9793
   13DOPC  C315 1782   2.963   1.425   3.261 -0.1528 -0.4522  0.3763
   13DOPC  H15X 1783   3.048   1.386   3.322  1.4009  0.2086 -1.2918
   13DOPC  H15Y 1784   2.995   1.436   3.155 -2.4298 -0.7572 -0.3810
   13DOPC  C316 1785   2.850   1.330   3.260 -0.2325  0.5138 -0.1722
   13DOPC  H16X 1786   2.800   1.339   3.359  1.3343  3.6375  0.4419
   13DOPC  H16Y 1787   2.777   1.370   3.186 -1.1810 -0.8546 -0.0256
   13DOPC  C317 1788   2.881   1.185   3.221  0.1542 -0.0891 -0.4457
   13DOPC  H17X 1789   2.799   1.152   3.153  0.2743 -1.8237  0.2105
   13DOPC  H17Y 1790   2.966   1.191   3.150 -0.6311  0.0604 -1.3962
   13DOPC  C318 1791   2.909   1.084   3.326  0.3817 -0.0923 -1.5965
   13DOPC  H18X 1792   3.011   1.090   3.369 -1.0220 -1.0206  2.3692
   13DOPC  H18Y 1793   2.834   1.102   3.406  0.3689  1.6228 -1.9574
   13DOPC  H18Z 1794   2.901   0.979   3.292  0.0640 -1.7822  2.9501
   14DOPC     N 1795   1.012   0.439   6.041  0.5448  0.2330 -0.3175
   14DOPC   C12 1796   0.886   0.455   5.953 -0.0267 -0.3595  0.1517
   14DOPC  H12A 1797   0.842   0.359   5.931 -0.7475  0.2376 -1.1107
   14DOPC  H12B 1798   0.929   0.490   5.860 -0.1349 -0.6676 -0.0129
   14DOPC   C13 1799   0.964   0.372   6.168 -0.2378 -0.5281 -0.1186
   14DOPC  H13A 1800   0.893   0.431   6.225  0.2612  0.2922 -0.3302
   14DOPC  H13B 1801   0.900   0.290   6.140 -1.0912  0.9448 -2.8674
   14DOPC  H13C 1802   1.038   0.329   6.233 -0.4717 -1.5523 -0.5104
   14DOPC   C14 1803   1.070   0.570   6.066 -0.0136 -0.2742  0.6235
   14DOPC  H14A 1804   0.999   0.636   6.114 -0.4455 -1.3688  1.5260
   14DOPC  H14B 1805   1.157   0.560   6.129  2.7781 -1.8955 -3.0506
   14DOPC  H14C 1806   1.110   0.610   5.974 -3.1929 -0.7072 -1.0728
   14DOPC   C15 1807   1.110   0.350   5.973 -0.6181  0.7175 -0.1267
   14DOPC  H15A 1808   1.135   0.390   5.876 -2.3738  0.9781 -0.5049
   14DOPC  H15B 1809   1.071   0.250   5.964  1.3274 -0.1656  0.5539
   14DOPC  H15C 1810   1.200   0.341   6.033 -0.2326  0.7611 -0.6887
   14DOPC   C11 1811   0.776   0.557   5.988  0.0624  0.7953 -0.0625
   14DOPC  H11A 1812   0.706   0.536   5.904  1.3759 -1.6585 -0.6510
   14DOPC  H11B 1813   0.730   0.528   6.085 -1.1809  1.1725 -0.5253
   14DOPC     P 1814   0.810   0.783   5.856  0.2521  0.0663 -0.2559
   14DOPC   O13 1815   0.906   0.898   5.875 -0.7812  0.0715 -0.3461
   14DOPC   O14 1816   0.666   0.817   5.835 -0.0345 -0.4579 -0.0682
   14DOPC   O12 1817   0.817   0.688   5.985 -0.8409 -0.2867  0.1851
   14DOPC   O11 1818   0.850   0.696   5.732  0.3778  0.0696 -0.6236
   14DOPC    C1 1819   0.969   0.712   5.656 -0.4889 -0.2661 -0.3754
   14DOPC    HA 1820   1.031   0.621   5.669 -1.5510 -1.0528 -0.7595
   14DOPC    HB 1821   1.031   0.795   5.698 -0.5118 -0.0930 -0.6731
   14DOPC    C2 1822   0.949   0.735   5.503  0.5001 -0.4038 -0.9959
   14DOPC    HS 1823   0.886   0.824   5.484  0.4200 -0.0516  0.7399
   14DOPC   O21 1824   0.878   0.621   5.456 -0.1461  0.6135 -0.0210
   14DOPC   C21 1825   0.791   0.639   5.362  0.4848 -1.0905  1.4546
   14DOPC   O22 1826   0.756   0.753   5.315 -0.2344  0.2240 -0.0904
   14DOPC   C22 1827   0.739   0.501   5.314 -0.2522 -0.2829  0.1271
   14DOPC   H2R 1828   0.630   0.517   5.295 -0.2777 -0.2575  0.2907
   14DOPC   H2S 1829   0.742   0.435   5.403  0.3237  0.2340  0.4935
   14DOPC    C3 1830   1.079   0.745   5.423  0.3863  0.3249 -0.6804
   14DOPC    HX 1831   1.141   0.653   5.426  0.3833  0.2799  3.1792
   14DOPC    HY 1832   1.157   0.815   5.460  0.0745 -0.6569  2.0893
   14DOPC   O31 1833   1.057   0.782   5.282 -0.0020 -0.5982 -0.5306
   14DOPC   C31 1834   1.051   0.916   5.267  0.3033  0.8276  0.0211
   14DOPC   O32 1835   1.066   1.000   5.359  0.1397  0.3122  0.1346
   14DOPC   C32 1836   1.039   0.950   5.120 -0.1334  0.3027 -0.4487
   14DOPC   H2X 1837   1.091   0.871   5.062 -0.8250 -0.2250 -0.3631
   14DOPC   H2Y 1838   0.932   0.947   5.090 -0.8442 -1.7860  2.0039
   14DOPC   C23 1839   0.805   0.437   5.196 -0.1778  0.1167  1.0085
   14DOPC   H3R 1840   0.889   0.376   5.235  1.1427  1.4479  0.3754
   14DOPC   H3S 1841   0.862   0.506   5.130 -0.1349 -0.0505  0.8694
   14DOPC   C24 1842   0.713   0.359   5.107 -0.5435  0.6754 -0.0609
   14DOPC   H4R 1843   0.648   0.439   5.066 -2.6904 -0.8294  0.2252
   14DOPC   H4S 1844   0.647   0.290   5.165 -0.5041 -0.0294 -0.8233
   14DOPC   C25 1845   0.781   0.278   4.994 -0.1414 -0.4236 -0.0369
   14DOPC   H5R 1846   0.832   0.193   5.045  0.7667  0.4334  0.5181
   14DOPC   H5S 1847   0.862   0.340   4.950  0.9963 -2.2873 -0.6579
   14DOPC   C26 1848   0.690   0.234   4.879 -1.3394 -0.3659 -0.0077
   14DOPC   H6R 1849   0.624   0.319   4.851 -0.2370  0.7009  0.5682
   14DOPC   H6S 1850   0.624   0.150   4.909  0.7610 -1.3360  2.2179
   14DOPC   C27 1851   0.766   0.193   4.750 -0.3267  0.5284 -0.3659
   14DOPC   H7R 1852   0.816   0.096   4.769  2.0657  1.4507 -1.4901
   14DOPC   H7S 1853   0.853   0.256   4.721  0.3753 -0.2873 -0.0632
   14DOPC   C28 1854   0.669   0.181   4.642 -0.0875  1.4691  0.7277
   14DOPC   H8R 1855   0.569   0.162   4.687 -0.7483  1.9454 -0.5155
   14DOPC   H8S 1856   0.704   0.099   4.576 -0.2155  2.3519 -0.4572
   14DOPC   C29 1857   0.656   0.302   4.563  0.1433 -0.8033 -0.3745
   14DOPC   H9R 1858   0.661   0.397   4.619  0.3454 -1.2196  0.3337
   14DOPC  C210 1859   0.655   0.317   4.428  0.0383 -0.1789 -0.3899
   14DOPC  H10R 1860   0.635   0.418   4.389  1.6101 -0.0336 -0.9030
   14DOPC  C211 1861   0.642   0.197   4.334  1.3993 -0.6181  1.0896
   14DOPC  H11R 1862   0.632   0.101   4.388 -2.9027 -0.1916  1.3516
   14DOPC  H11S 1863   0.727   0.191   4.262  0.2116  0.1364 -0.4153
   14DOPC  C212 1864   0.513   0.205   4.247  0.2791 -0.0497 -0.2799
   14DOPC  H12R 1865   0.518   0.106   4.196 -1.4365 -0.8064  0.9337
   14DOPC  H12S 1866   0.515   0.277   4.162  1.0055  0.9525  0.5654
   14DOPC  C213 1867   0.381   0.209   4.324 -0.3489  0.4124  0.0748
   14DOPC  H13R 1868   0.371   0.315   4.359  1.7019  2.1644 -4.0153
   14DOPC  H13S 1869   0.395   0.136   4.406 -0.8373  0.8601  0.5741
   14DOPC  C214 1870   0.270   0.165   4.229  0.5143 -0.0304  0.5757
   14DOPC  H14R 1871   0.291   0.062   4.193 -1.4592 -0.2508 -0.0702
   14DOPC  H14S 1872   0.273   0.229   4.138 -0.5036  0.0892  0.6155
   14DOPC  C215 1873   0.127   0.166   4.285  0.5013 -0.3861  0.0690
   14DOPC  H15R 1874   0.143   0.112   4.381 -0.7092 -0.2530  0.3610
   14DOPC  H15S 1875   0.067   0.100   4.219 -0.5896 -0.5642  1.1899
   14DOPC  C216 1876   0.076   0.306   4.297  0.0481  0.1230 -0.5407
   14DOPC  H16R 1877   0.083   0.359   4.200 -0.0192  1.4557  0.1474
   14DOPC  H16S 1878   0.143   0.362   4.366  0.0917 -2.1715  1.4108
   14DOPC  C217 1879  -0.073   0.299   4.345  0.4354  0.6805 -0.6681
   14DOPC  H17R 1880  -0.135   0.252   4.266 -0.6819 -0.2336  0.6965
   14DOPC  H17S 1881  -0.115   0.401   4.362  0.6481  0.2845  3.4304
   14DOPC  C218 1882  -0.090   0.219   4.476 -0.2801 -0.1499  0.3397
   14DOPC  H18R 1883  -0.078   0.109   4.467 -0.3460 -0.1546  0.3089
   14DOPC  H18S 1884  -0.196   0.234   4.504 -0.5957 -1.1181 -0.2950
   14DOPC  H18T 1885  -0.013   0.247   4.551 -0.2587  1.8927 -0.4059
   14DOPC   C33 1886   1.110   1.087   5.079 -0.1979 -0.0931  0.0083
   14DOPC   H3X 1887   1.209   1.107   5.125 -0.1093 -0.6699  0.0719
   14DOPC   H3Y 1888   1.047   1.171   5.116 -2.1723 -0.9777 -1.2172
   14DOPC   C34 1889   1.137   1.095   4.935  0.0075  0.2048  0.8333
   14DOPC   H4X 1890   1.192   1.002   4.908  1.5646  1.0708  0.8944
   14DOPC   H4Y 1891   1.208   1.177   4.911 -0.3028  0.9884  2.5034
   14DOPC   C35 1892   1.014   1.100   4.847 -0.4665 -0.1860 -1.0638
   14DOPC   H5X 1893   0.946   1.181   4.880 -0.7966 -1.1350  0.7067
   14DOPC   H5Y 1894   0.969   1.002   4.875 -0.8341  0.0452 -0.8306
   14DOPC   C36 1895   1.043   1.114   4.699  0.1193  0.3109  0.4806
   14DOPC   H6X 1896   1.125   1.051   4.659 -1.0495 -0.6914 -0.4316
   14DOPC   H6Y 1897   0.957   1.090   4.632  1.0971 -0.7592 -0.4366
   14DOPC   C37 1898   1.079   1.262   4.673  0.3123  0.6110  0.5213
   14DOPC   H7X 1899   1.010   1.330   4.727 -1.4025 -0.2690 -0.4776
   14DOPC   H7Y 1900   1.185   1.276   4.701  0.7115  0.6752 -0.9460
   14DOPC   C38 1901   1.057   1.309   4.525 -0.2301 -0.1875 -0.8228
   14DOPC   H8X 1902   1.085   1.416   4.524  0.5208 -0.3501  0.7701
   14DOPC   H8Y 1903   0.949   1.301   4.501 -1.3682 -1.4400  3.7261
   14DOPC   C39 1904   1.140   1.218   4.439 -0.7111 -0.5955 -0.3635
   14DOPC   H9X 1905   1.097   1.119   4.418 -2.0809 -0.1612  0.2654
   14DOPC  C310 1906   1.263   1.247   4.392  0.4359  0.4767  0.1566
   14DOPC  H10X 1907   1.320   1.171   4.337  0.7682  0.3339  0.6949
   14DOPC  C311 1908   1.340   1.379   4.405  0.4871  0.2688  0.1146
   14DOPC  H11X 1909   1.447   1.350   4.393  0.5202  0.1401  0.6857
   14DOPC  H11Y 1910   1.322   1.425   4.504  1.3476  0.7032  0.0805
   14DOPC  C312 1911   1.305   1.478   4.290  0.2715  0.3500 -0.4034
   14DOPC  H12X 1912   1.198   1.501   4.309  0.2890 -1.1316  1.9303
   14DOPC  H12Y 1913   1.316   1.422   4.194  0.2672  0.8286 -0.6854
   14DOPC  C313 1914   1.392   1.601   4.282 -0.1840 -0.3490  0.1950
   14DOPC  H13X 1915   1.373   1.667   4.369 -2.4934 -1.2826  0.4462
   14DOPC  H13Y 1916   1.501   1.578   4.284  0.0776  0.8803  1.7871
   14DOPC  C314 1917   1.362   1.691   4.159  0.2581  0.1089 -0.0578
   14DOPC  H14X 1918   1.393   1.634   4.068 -2.3358 -0.6462 -0.5616
   14DOPC  H14Y 1919   1.252   1.697   4.141  0.1783 -0.6692  0.0941
   14DOPC  C315 1920   1.429   1.824   4.165  0.1810  0.0310 -0.1678
   14DOPC  H15X 1921   1.424   1.877   4.067 -0.5454  1.0139  0.3771
   14DOPC  H15Y 1922   1.534   1.808   4.197  0.0422 -2.4417 -0.7947
   14DOPC  C316 1923   1.353   1.921   4.268 -0.8133  0.1959 -0.9571
   14DOPC  H16X 1924   1.247   1.904   4.238 -0.6078 -2.5933 -0.3619
   14DOPC  H16Y 1925   1.379   1.878   4.367  1.7987  3.5060 -0.0319
   14DOPC  C317 1926   1.410   2.065   4.253  1.0633  0.7596 -0.6438
   14DOPC  H17X 1927   1.514   2.057   4.293  0.1910 -3.1233  1.2392
   14DOPC  H17Y 1928   1.426   2.085   4.144 -0.8180 -1.7687 -1.4795
   14DOPC  C318 1929   1.324   2.178   4.310  0.3332 -0.8923  0.3286
   14DOPC  H18X 1930   1.228   2.180   4.254  0.6789  2.5242 -0.3484
   14DOPC  H18Y 1931   1.308   2.172   4.420  1.1756  0.9198  0.5895
   14DOPC  H18Z 1932   1.375   2.275   4.291  2.1273 -1.4105  2.1568
   15DOPC     N 1933   5.943   1.562   5.982  0.5328  0.1442  0.2190
   15DOPC   C12 1934   5.849   1.461   6.053 -0.6578 -0.3566 -0.4331
   15DOPC  H12A 1935   5.789   1.411   5.978 -1.5940  0.4832 -0.2719
   15DOPC  H12B 1936   5.767   1.513   6.100 -0.2078 -0.5585  0.6081
   15DOPC   C13 1937   6.041   1.486   5.903 -0.3756 -0.0192  0.0051
   15DOPC  H13A 1938   6.083   1.406   5.962  1.9462  0.7757 -0.4683
   15DOPC  H13B 1939   6.002   1.444   5.811  1.8513  0.1051 -1.0632
   15DOPC  H13C 1940   6.119   1.556   5.876 -2.0417  2.2722  0.8162
   15DOPC   C14 1941   6.005   1.648   6.088 -0.0557  0.4043  0.2283
   15DOPC  H14A 1942   6.069   1.725   6.049 -0.1428 -0.4541 -1.7299
   15DOPC  H14B 1943   5.933   1.698   6.151 -0.1128  1.6982 -0.8142
   15DOPC  H14C 1944   6.079   1.591   6.143 -0.8633 -0.6116  0.3032
   15DOPC   C15 1945   5.859   1.651   5.889  0.3945 -0.4389 -0.3931
   15DOPC  H15A 1946   5.766   1.679   5.937  0.7052 -0.2736  0.1287
   15DOPC  H15B 1947   5.822   1.585   5.812 -0.9695 -0.4532  0.2391
   15DOPC  H15C 1948   5.923   1.730   5.852 -0.2894  0.7286  0.8249
   15DOPC   C11 1949   5.913   1.348   6.145  0.4885 -0.4561 -0.5467
   15DOPC  H11A 1950   5.957   1.392   6.237  1.3998  1.5944 -1.8933
   15DOPC  H11B 1951   5.819   1.293   6.169 -0.2686  0.7997 -0.5264
   15DOPC     P 1952   5.974   1.128   6.010  0.2440  0.5953 -0.0724
   15DOPC   O13 1953   5.897   1.050   6.104 -0.0271  0.5446 -0.6870
   15DOPC   O14 1954   6.096   1.070   5.963  0.0139  0.5732  0.0202
   15DOPC   O12 1955   6.007   1.265   6.072  0.3548  0.1559  0.2688
   15DOPC   O11 1956   5.869   1.163   5.899  0.2343  0.7174 -0.9371
   15DOPC    C1 1957   5.887   1.107   5.766 -1.1247  0.8159 -0.2090
   15DOPC    HA 1958   5.922   1.001   5.768 -0.4221  1.0423 -0.1268
   15DOPC    HB 1959   5.973   1.160   5.721 -0.1402 -0.8266 -0.3584
   15DOPC    C2 1960   5.770   1.110   5.667  0.3252  0.4070 -0.1899
   15DOPC    HS 1961   5.688   1.069   5.730  1.6317  1.4329  2.3310
   15DOPC   O21 1962   5.803   1.020   5.563 -0.2480 -0.6172  0.2299
   15DOPC   C21 1963   5.701   1.000   5.480  0.2806  0.5282 -0.3245
   15DOPC   O22 1964   5.586   1.025   5.513  0.3749 -0.7965  0.6603
   15DOPC   C22 1965   5.744   0.923   5.356  0.6360  0.2207  0.4908
   15DOPC   H2R 1966   5.826   0.857   5.390 -0.0923 -0.4702  0.9658
   15DOPC   H2S 1967   5.782   1.005   5.291 -1.9365 -0.0108 -1.5062
   15DOPC    C3 1968   5.740   1.255   5.641  0.8531  0.1876  0.9634
   15DOPC    HX 1969   5.737   1.309   5.738 -0.8556 -0.0945  1.0914
   15DOPC    HY 1970   5.634   1.266   5.610 -0.2095 -0.7360  3.9509
   15DOPC   O31 1971   5.824   1.301   5.538  0.4125 -0.1640 -0.0393
   15DOPC   C31 1972   5.893   1.418   5.550 -0.4276  0.2957  0.6727
   15DOPC   O32 1973   5.884   1.500   5.639 -0.0960 -0.4478 -0.2673
   15DOPC   C32 1974   5.970   1.431   5.414 -0.3260  0.0105  0.1853
   15DOPC   H2X 1975   6.060   1.366   5.420 -0.4825 -0.1455  0.9293
   15DOPC   H2Y 1976   5.904   1.384   5.339 -0.3824 -2.3193  1.5817
   15DOPC   C23 1977   5.623   0.852   5.283 -0.6700  0.2058  0.4805
   15DOPC   H3R 1978   5.620   0.881   5.176  1.7756  2.4619  0.8972
   15DOPC   H3S 1979   5.525   0.895   5.313 -1.1053 -1.5893  1.8000
   15DOPC   C24 1980   5.623   0.701   5.296 -0.4097  0.0314  0.0972
   15DOPC   H4R 1981   5.538   0.668   5.233 -1.2081  1.2517  0.4980
   15DOPC   H4S 1982   5.611   0.666   5.401  0.4987 -4.1285 -1.0000
   15DOPC   C25 1983   5.751   0.641   5.255 -0.7752  0.3265  0.3830
   15DOPC   H5R 1984   5.833   0.634   5.330 -0.6695 -0.6075  0.1821
   15DOPC   H5S 1985   5.790   0.699   5.168  1.0143 -0.9110  0.3007
   15DOPC   C26 1986   5.741   0.496   5.197  0.3490 -0.0364  0.0726
   15DOPC   H6R 1987   5.657   0.501   5.124 -1.0052 -0.2854  1.5425
   15DOPC   H6S 1988   5.686   0.437   5.273  0.4639  0.0526  0.2239
   15DOPC   C27 1989   5.858   0.431   5.135 -0.5572 -1.0984 -0.1796
   15DOPC   H7R 1990   5.919   0.396   5.221 -1.7480 -0.1952  1.0553
   15DOPC   H7S 1991   5.911   0.509   5.076 -0.9710 -0.9651 -0.3789
   15DOPC   C28 1992   5.835   0.323   5.038 -0.3271  0.7570  0.5808
   15DOPC   H8R 1993   5.931   0.302   4.985 -0.5236  1.5381 -0.1162
   15DOPC   H8S 1994   5.782   0.372   4.953  0.6655  0.8367 -0.0077
   15DOPC   C29 1995   5.776   0.196   5.095 -0.0672 -0.5923  0.6620
   15DOPC   H9R 1996   5.845   0.128   5.147 -0.0735 -1.7859 -0.7953
   15DOPC  C210 1997   5.652   0.142   5.071 -0.0432  0.2630  0.6403
   15DOPC  H10R 1998   5.625   0.051   5.125  2.9170 -0.8765  0.4258
   15DOPC  C211 1999   5.543   0.216   4.993  0.0262  0.2557 -0.7528
   15DOPC  H11R 2000   5.582   0.309   4.948  3.4133 -0.6297  0.0171
   15DOPC  H11S 2001   5.466   0.256   5.063  0.1844  2.0122 -1.5361
   15DOPC  C212 2002   5.455   0.132   4.896 -0.1561 -0.7836 -0.0479
   15DOPC  H12R 2003   5.368   0.194   4.867  0.1031  0.6418  1.9523
   15DOPC  H12S 2004   5.429   0.034   4.942  0.7521 -0.2234  1.7709
   15DOPC  C213 2005   5.539   0.100   4.778  0.2229 -0.3685  0.1182
   15DOPC  H13R 2006   5.648   0.090   4.795  0.2675  0.4799  0.3638
   15DOPC  H13S 2007   5.535   0.187   4.710  1.0154 -0.3930  0.0292
   15DOPC  C214 2008   5.496  -0.015   4.692  0.4806  0.7592  0.0164
   15DOPC  H14R 2009   5.386  -0.006   4.687  0.4798  0.7405  0.0139
   15DOPC  H14S 2010   5.536  -0.111   4.730 -2.5662 -0.0083  1.6247
   15DOPC  C215 2011   5.545   0.000   4.548  0.1187 -0.5374 -0.7732
   15DOPC  H15R 2012   5.652   0.032   4.547 -0.3383  1.1136  0.4498
   15DOPC  H15S 2013   5.481   0.077   4.501 -0.8370 -0.3967  0.7214
   15DOPC  C216 2014   5.538  -0.130   4.460  0.7733  0.4289  0.2055
   15DOPC  H16R 2015   5.566  -0.111   4.354 -2.2439 -1.6003 -1.1114
   15DOPC  H16S 2016   5.434  -0.169   4.451  1.0081 -0.2765  0.4581
   15DOPC  C217 2017   5.623  -0.248   4.517  0.1281 -0.1587  0.3149
   15DOPC  H17R 2018   5.570  -0.290   4.605 -1.9243  1.9416  0.1771
   15DOPC  H17S 2019   5.711  -0.196   4.563  1.0966 -1.6566  0.2090
   15DOPC  C218 2020   5.661  -0.352   4.416 -0.0867 -0.5219  0.3610
   15DOPC  H18R 2021   5.747  -0.312   4.358 -1.5871  1.1668 -0.7865
   15DOPC  H18S 2022   5.579  -0.389   4.351  2.4731 -3.2969 -1.5395
   15DOPC  H18T 2023   5.687  -0.447   4.468  2.7566 -0.3534 -0.5775
   15DOPC   C33 2024   6.007   1.574   5.380  0.0577  0.1510  0.5795
   15DOPC   H3X 2025   6.113   1.569   5.346 -0.2061  0.8761 -0.3810
   15DOPC   H3Y 2026   6.014   1.642   5.468  1.3115  0.6944  0.0853
   15DOPC   C34 2027   5.913   1.639   5.275 -1.0212 -0.0519 -0.6731
   15DOPC   H4X 2028   5.805   1.652   5.296 -1.1148 -0.4088 -0.9009
   15DOPC   H4Y 2029   5.916   1.569   5.188  0.1280 -0.0006 -0.6928
   15DOPC   C35 2030   5.979   1.772   5.231 -0.2277 -0.1386  0.5737
   15DOPC   H5X 2031   6.089   1.759   5.220 -0.1071 -0.0294  1.5576
   15DOPC   H5Y 2032   5.962   1.839   5.318  2.4309 -0.3145  1.3298
   15DOPC   C36 2033   5.914   1.831   5.099 -0.0374 -0.0355 -0.6886
   15DOPC   H6X 2034   5.944   1.760   5.019  1.0382  0.7987 -1.0500
   15DOPC   H6Y 2035   5.805   1.833   5.118  0.3777  1.1845  2.1153
   15DOPC   C37 2036   5.958   1.979   5.069  0.0174 -0.5071 -0.2335
   15DOPC   H7X 2037   5.962   2.036   5.164 -1.3808  1.0674 -1.0592
   15DOPC   H7Y 2038   6.057   1.975   5.018 -1.2246  0.2942 -2.8817
   15DOPC   C38 2039   5.868   2.028   4.951  0.1614 -0.2123 -0.3273
   15DOPC   H8X 2040   5.773   2.050   5.005  0.2673 -0.6290  0.0297
   15DOPC   H8Y 2041   5.846   1.937   4.891 -1.1050 -0.4938  0.5230
   15DOPC   C39 2042   5.886   2.149   4.859 -0.6580 -0.4084 -0.3810
   15DOPC   H9X 2043   5.823   2.239   4.870  0.8250  0.4894  1.3102
   15DOPC  C310 2044   5.982   2.150   4.767  0.6396 -0.8918 -0.4649
   15DOPC  H10X 2045   6.003   2.241   4.710 -1.0496  0.0759  0.3913
   15DOPC  C311 2046   6.080   2.040   4.731 -0.7189  0.3577  0.6148
   15DOPC  H11X 2047   6.052   1.937   4.761 -0.3888  0.1846  0.3395
   15DOPC  H11Y 2048   6.178   2.068   4.776  0.2423  2.1395 -2.2969
   15DOPC  C312 2049   6.115   2.024   4.576  0.9709  0.1902 -0.0824
   15DOPC  H12X 2050   6.176   1.932   4.563 -0.5824 -0.8681 -0.1796
   15DOPC  H12Y 2051   6.180   2.108   4.543  0.9319  0.1805 -0.1834
   15DOPC  C313 2052   5.990   2.014   4.486 -0.1301  0.4909  0.5638
   15DOPC  H13X 2053   5.931   2.107   4.506 -0.3926 -0.2532  3.6542
   15DOPC  H13Y 2054   6.028   1.997   4.383 -2.2907 -1.0639 -0.0348
   15DOPC  C314 2055   5.893   1.902   4.506  0.7871  0.8359  0.1282
   15DOPC  H14X 2056   5.950   1.807   4.518 -0.5703  0.0786  0.8069
   15DOPC  H14Y 2057   5.839   1.922   4.600 -0.0486  3.1711 -0.7786
   15DOPC  C315 2058   5.783   1.887   4.394  0.1630 -0.1042 -0.2158
   15DOPC  H15X 2059   5.841   1.859   4.303 -0.1604 -2.1975  0.1790
   15DOPC  H15Y 2060   5.734   1.986   4.383 -1.4752 -0.8928 -0.3610
   15DOPC  C316 2061   5.692   1.772   4.416 -0.0870 -0.1674 -0.1570
   15DOPC  H16X 2062   5.749   1.679   4.434 -1.0068 -0.3943  1.9186
   15DOPC  H16Y 2063   5.644   1.791   4.515  0.7028 -1.5368  0.5203
   15DOPC  C317 2064   5.594   1.754   4.307  0.2517 -0.0328 -0.1129
   15DOPC  H17X 2065   5.649   1.745   4.211 -1.0162  2.0456 -1.1003
   15DOPC  H17Y 2066   5.549   1.653   4.321  0.2127  0.3861  3.8816
   15DOPC  C318 2067   5.476   1.854   4.300  0.3446  0.3397 -0.1745
   15DOPC  H18X 2068   5.504   1.960   4.281  0.9593  0.0186 -1.1601
   15DOPC  H18Y 2069   5.405   1.832   4.217 -3.2535 -0.3049  2.8044
   15DOPC  H18Z 2070   5.414   1.839   4.391  0.7945  1.7570  0.3911
   16DOPC     N 2071   5.717   4.283   6.636  0.6177 -0.0113 -0.5117
   16DOPC   C12 2072   5.646   4.418   6.628 -0.2459  0.1008 -0.2178
   16DOPC  H12A 2073   5.679   4.492   6.700  1.4378  0.5007 -1.3466
   16DOPC  H12B 2074   5.543   4.395   6.649  0.0386 -1.3627 -0.3474
   16DOPC   C13 2075   5.851   4.298   6.581 -0.5016 -0.2339 -0.0857
   16DOPC  H13A 2076   5.906   4.376   6.632 -0.8103 -0.1911  0.1892
   16DOPC  H13B 2077   5.911   4.208   6.586  0.0066  0.1234  0.4830
   16DOPC  H13C 2078   5.854   4.327   6.477 -0.4950 -1.6980 -0.5104
   16DOPC   C14 2079   5.644   4.178   6.551  0.0278  0.5810 -0.3857
   16DOPC  H14A 2080   5.632   4.212   6.450  2.7827  0.3941 -0.8531
   16DOPC  H14B 2081   5.689   4.080   6.556 -2.2477 -0.5456 -0.6322
   16DOPC  H14C 2082   5.542   4.182   6.588 -0.1361  2.9785 -0.8812
   16DOPC   C15 2083   5.724   4.241   6.778 -0.5800 -0.4107  0.0623
   16DOPC  H15A 2084   5.772   4.317   6.837  0.6125  0.5548 -2.0314
   16DOPC  H15B 2085   5.759   4.138   6.780 -2.3893 -1.2024 -2.7694
   16DOPC  H15C 2086   5.623   4.226   6.814 -0.8041  0.8319 -0.0332
   16DOPC   C11 2087   5.659   4.493   6.493 -0.7992 -1.0725 -0.1418
   16DOPC  H11A 2088   5.591   4.581   6.498  0.4852 -0.0272 -0.5540
   16DOPC  H11B 2089   5.763   4.532   6.504 -0.4557 -1.9198 -0.3395
   16DOPC     P 2090   5.500   4.396   6.325  0.1359  0.6605 -0.0760
   16DOPC   O13 2091   5.407   4.430   6.436 -0.2447 -0.3130  0.3432
   16DOPC   O14 2092   5.474   4.261   6.269  0.8884  0.4195  0.2588
   16DOPC   O12 2093   5.646   4.414   6.372 -0.4443 -0.7468  0.4645
   16DOPC   O11 2094   5.478   4.491   6.202 -0.2435  0.3364 -0.4241
   16DOPC    C1 2095   5.351   4.513   6.142 -0.4205  0.0078  0.3128
   16DOPC    HA 2096   5.344   4.618   6.105 -0.0116 -0.4175 -1.0220
   16DOPC    HB 2097   5.268   4.500   6.215  0.4970 -1.4051  1.1580
   16DOPC    C2 2098   5.333   4.420   6.019 -0.3498  0.4340 -0.0933
   16DOPC    HS 2099   5.321   4.315   6.055 -2.4056  0.7859  0.3496
   16DOPC   O21 2100   5.447   4.436   5.931 -0.8834 -0.4581 -0.0477
   16DOPC   C21 2101   5.460   4.332   5.842 -0.3684 -0.3161  0.0532
   16DOPC   O22 2102   5.414   4.221   5.855  0.4661 -0.6416  0.7242
   16DOPC   C22 2103   5.559   4.376   5.731 -0.5419  0.5765  0.4487
   16DOPC   H2R 2104   5.654   4.387   5.787  0.5986  0.1462 -1.3225
   16DOPC   H2S 2105   5.521   4.475   5.697  1.0908  0.6677 -1.2523
   16DOPC    C3 2106   5.199   4.444   5.959  0.4165  0.3025  0.4952
   16DOPC    HX 2107   5.128   4.420   6.041 -0.9808  0.4468 -0.6393
   16DOPC    HY 2108   5.184   4.372   5.876 -1.7346 -0.3863  1.3971
   16DOPC   O31 2109   5.188   4.580   5.922  0.3629 -0.7612 -0.1197
   16DOPC   C31 2110   5.196   4.607   5.793  0.1905  0.2085 -0.3208
   16DOPC   O32 2111   5.220   4.525   5.707  0.3712 -0.5207 -0.7304
   16DOPC   C32 2112   5.182   4.746   5.775 -0.1293 -0.8885  0.2796
   16DOPC   H2X 2113   5.101   4.784   5.841 -1.5117 -0.8471 -1.3897
   16DOPC   H2Y 2114   5.275   4.797   5.809 -0.7921  0.2451  0.4202
   16DOPC   C23 2115   5.578   4.275   5.622 -0.3900 -0.0503  0.0871
   16DOPC   H3R 2116   5.582   4.177   5.673 -0.1237  0.2037  0.5738
   16DOPC   H3S 2117   5.678   4.296   5.577  0.8564 -1.6101  1.9845
   16DOPC   C24 2118   5.481   4.284   5.503 -0.1769 -0.3014 -0.3581
   16DOPC   H4R 2119   5.515   4.368   5.438 -0.8917 -0.3933 -0.8527
   16DOPC   H4S 2120   5.379   4.301   5.542 -0.3894 -1.4678 -0.3672
   16DOPC   C25 2121   5.476   4.143   5.432  0.1011 -0.1508 -0.7992
   16DOPC   H5R 2122   5.390   4.159   5.364  1.5280 -0.6308 -2.7847
   16DOPC   H5S 2123   5.445   4.064   5.504 -0.6896  0.3084 -0.6173
   16DOPC   C26 2124   5.607   4.120   5.357  1.0009 -0.3683 -0.2806
   16DOPC   H6R 2125   5.688   4.118   5.432 -0.1338  0.3560  1.0056
   16DOPC   H6S 2126   5.628   4.208   5.293  0.6635  0.4827  0.7503
   16DOPC   C27 2127   5.605   3.998   5.275 -0.6948  0.0765  1.1812
   16DOPC   H7R 2128   5.502   3.999   5.234 -0.6549 -0.8819  1.0393
   16DOPC   H7S 2129   5.619   3.916   5.348  0.7275 -0.2558  0.5742
   16DOPC   C28 2130   5.714   3.984   5.167 -0.7349  0.1563 -0.4771
   16DOPC   H8R 2131   5.810   4.003   5.220 -0.1669  0.8184 -1.6857
   16DOPC   H8S 2132   5.710   4.062   5.088 -1.2105  1.1380  0.5040
   16DOPC   C29 2133   5.718   3.844   5.103  0.7601 -0.0144 -0.5153
   16DOPC   H9R 2134   5.753   3.769   5.175  0.1498  0.7092  0.5668
   16DOPC  C210 2135   5.713   3.815   4.969  0.6818 -0.1846 -0.5384
   16DOPC  H10R 2136   5.724   3.706   4.954  1.7097 -0.6847  2.9538
   16DOPC  C211 2137   5.689   3.906   4.850  0.1386  0.1267  1.0486
   16DOPC  H11R 2138   5.672   4.014   4.872 -1.3333  0.3426 -0.8164
   16DOPC  H11S 2139   5.595   3.880   4.795  0.2038  1.5820  0.1896
   16DOPC  C212 2140   5.802   3.921   4.737 -0.4630  0.0143  0.4219
   16DOPC  H12R 2141   5.902   3.948   4.775  1.2263  1.0638 -4.1399
   16DOPC  H12S 2142   5.772   4.001   4.666  1.5003 -0.3156 -0.8376
   16DOPC  C213 2143   5.805   3.796   4.642 -0.5697  0.1089 -0.4861
   16DOPC  H13R 2144   5.700   3.785   4.609 -0.9246  2.2464 -0.2257
   16DOPC  H13S 2145   5.831   3.709   4.706 -0.0252  0.4203 -0.2800
   16DOPC  C214 2146   5.898   3.823   4.521  0.4269 -0.1942  0.2828
   16DOPC  H14R 2147   5.994   3.850   4.571  0.1033  1.6280 -0.0091
   16DOPC  H14S 2148   5.844   3.895   4.455 -1.5343 -2.5911 -0.8542
   16DOPC  C215 2149   5.923   3.701   4.436 -0.0793 -0.0036 -0.1622
   16DOPC  H15R 2150   5.829   3.665   4.388  0.8903 -0.8605 -1.5111
   16DOPC  H15S 2151   5.938   3.621   4.511 -1.5507  0.2024  0.3814
   16DOPC  C216 2152   6.034   3.706   4.342  0.0847  0.1972 -0.4038
   16DOPC  H16R 2153   6.078   3.606   4.323  0.6937  0.1907  0.9599
   16DOPC  H16S 2154   6.116   3.772   4.376  0.8889 -1.3857  0.8417
   16DOPC  C217 2155   5.990   3.757   4.204 -0.1491 -0.2418  0.4024
   16DOPC  H17R 2156   5.986   3.868   4.211 -1.9808 -0.2615  0.0941
   16DOPC  H17S 2157   5.889   3.730   4.167 -0.3742  0.1058  0.7546
   16DOPC  C218 2158   6.087   3.715   4.086 -0.5059 -0.2987 -0.6327
   16DOPC  H18R 2159   6.075   3.607   4.063 -0.2854 -0.1399 -1.5193
   16DOPC  H18S 2160   6.192   3.743   4.107 -0.4959 -1.0199  0.3468
   16DOPC  H18T 2161   6.052   3.769   3.996  0.8178 -2.1670 -2.3488
   16DOPC   C33 2162   5.140   4.786   5.628 -0.0684 -0.6994  0.0991
   16DOPC   H3X 2163   5.117   4.894   5.630  3.4009  0.1625 -0.6891
   16DOPC   H3Y 2164   5.041   4.738   5.609 -1.2964  1.7527 -0.0310
   16DOPC   C34 2165   5.241   4.767   5.519  0.0934  0.1454  0.1489
   16DOPC   H4X 2166   5.292   4.668   5.518 -0.2937 -0.0595 -1.3707
   16DOPC   H4Y 2167   5.322   4.841   5.535 -1.6890  1.8920  1.4998
   16DOPC   C35 2168   5.186   4.789   5.377 -0.2337  0.1334 -0.0624
   16DOPC   H5X 2169   5.148   4.894   5.375 -0.8534 -0.0926 -1.6174
   16DOPC   H5Y 2170   5.097   4.724   5.363  1.0703 -1.5670 -0.8236
   16DOPC   C36 2171   5.288   4.770   5.267  0.0055  0.2935 -0.1102
   16DOPC   H6X 2172   5.227   4.789   5.176 -2.2754  0.2575  1.3275
   16DOPC   H6Y 2173   5.373   4.842   5.265  2.1538 -2.0724 -2.3240
   16DOPC   C37 2174   5.342   4.619   5.252  0.1648 -0.3260  0.9744
   16DOPC   H7X 2175   5.403   4.623   5.159 -1.3691 -0.4580 -0.0697
   16DOPC   H7Y 2176   5.403   4.588   5.340 -0.3702 -1.3510  0.9979
   16DOPC   C38 2177   5.222   4.531   5.228 -0.4773  0.2698 -0.6350
   16DOPC   H8X 2178   5.172   4.567   5.136  2.9022  1.8788 -2.0089
   16DOPC   H8Y 2179   5.153   4.535   5.314 -2.1144 -0.0354 -1.8957
   16DOPC   C39 2180   5.263   4.383   5.220  0.1238 -0.1618  0.6676
   16DOPC   H9X 2181   5.221   4.315   5.296 -1.8922  0.9071  0.5596
   16DOPC  C310 2182   5.355   4.331   5.134  0.2966  0.3775  0.2376
   16DOPC  H10X 2183   5.372   4.223   5.143 -0.8732  0.3549  4.0242
   16DOPC  C311 2184   5.406   4.396   5.011  0.0064 -0.5236 -0.2283
   16DOPC  H11X 2185   5.502   4.448   5.033 -1.8553  3.4974 -0.6095
   16DOPC  H11Y 2186   5.345   4.479   4.970  0.3808 -0.1003  0.0573
   16DOPC  C312 2187   5.447   4.283   4.914 -0.2595  0.1577 -0.2164
   16DOPC  H12X 2188   5.353   4.234   4.880 -0.9822  1.4516 -0.1536
   16DOPC  H12Y 2189   5.504   4.200   4.961 -0.8504 -0.7464 -1.0495
   16DOPC  C313 2190   5.504   4.336   4.787 -0.6919 -0.1640 -0.2861
   16DOPC  H13X 2191   5.417   4.375   4.730  0.3660  1.0409 -1.1353
   16DOPC  H13Y 2192   5.566   4.427   4.803  0.3119 -0.3123 -2.7800
   16DOPC  C314 2193   5.584   4.239   4.704  0.3215 -0.9221 -0.0487
   16DOPC  H14X 2194   5.681   4.218   4.754  1.0634 -2.8614 -2.1617
   16DOPC  H14Y 2195   5.526   4.146   4.688 -0.1380 -0.8807  1.2439
   16DOPC  C315 2196   5.626   4.301   4.568 -0.9840 -0.1412 -0.0399
   16DOPC  H15X 2197   5.682   4.393   4.594  0.7833 -1.2577  0.3151
   16DOPC  H15Y 2198   5.535   4.323   4.509 -1.2461 -2.7431 -0.7201
   16DOPC  C316 2199   5.711   4.204   4.484  0.7872  0.2823 -0.6329
   16DOPC  H16X 2200   5.815   4.187   4.522  0.7457 -1.5796 -1.2293
   16DOPC  H16Y 2201   5.664   4.106   4.507  0.0300  1.2155  2.2043
   16DOPC  C317 2202   5.703   4.218   4.331 -0.6380  0.1389  1.1839
   16DOPC  H17X 2203   5.598   4.242   4.303 -0.3118  0.2453  0.0037
   16DOPC  H17Y 2204   5.778   4.295   4.301  0.2414 -0.6998  1.1688
   16DOPC  C318 2205   5.746   4.085   4.258 -0.4277 -0.3996  0.2312
   16DOPC  H18X 2206   5.724   4.089   4.149  0.7766  3.8916 -0.0218
   16DOPC  H18Y 2207   5.849   4.051   4.282 -0.1165  0.1040 -0.3735
   16DOPC  H18Z 2208   5.675   4.008   4.294  0.7284 -0.9214  1.4816
   17DOPC     N 2209   2.146   1.155   2.336 -0.2666 -0.0862 -0.2376
   17DOPC   C12 2210   2.253   1.238   2.272 -0.0346 -0.2477  0.0117
   17DOPC  H12A 2211   2.245   1.336   2.316  0.1162 -0.8440  1.4378
   17DOPC  H12B 2212   2.241   1.259   2.167  2.4838  0.1609 -0.2452
   17DOPC   C13 2213   2.134   1.021   2.270  0.5094  0.8453 -0.7761
   17DOPC  H13A 2214   2.092   1.032   2.171 -3.9594  2.0053  0.9905
   17DOPC  H13B 2215   2.236   0.991   2.256  0.1813 -0.8022  0.1269
   17DOPC  H13C 2216   2.068   0.951   2.319  2.1819 -0.1263  0.1789
   17DOPC   C14 2217   2.017   1.232   2.323  0.2256 -0.6586  0.2311
   17DOPC  H14A 2218   1.986   1.243   2.220 -0.0116  0.0573  0.3733
   17DOPC  H14B 2219   1.935   1.180   2.370  0.4675 -1.2316  0.0258
   17DOPC  H14C 2220   2.031   1.334   2.355  0.1613 -0.7856  0.6791
   17DOPC   C15 2221   2.176   1.127   2.484 -0.0931 -0.1805  0.1719
   17DOPC  H15A 2222   2.244   1.198   2.529  0.9322 -0.3841 -1.0098
   17DOPC  H15B 2223   2.223   1.030   2.489 -0.4329 -0.3709 -0.3198
   17DOPC  H15C 2224   2.084   1.108   2.537  0.7034 -1.4427  1.1694
   17DOPC   C11 2225   2.398   1.188   2.297 -0.1662  0.3760  0.3310
   17DOPC  H11A 2226   2.468   1.271   2.275  0.4182 -0.3857 -0.7745
   17DOPC  H11B 2227   2.401   1.161   2.405 -0.5975  1.1634  0.5474
   17DOPC     P 2228   2.474   1.101   2.060  0.0485  0.5033  0.4479
   17DOPC   O13 2229   2.409   1.224   2.018  0.0082  0.1724 -0.1805
   17DOPC   O14 2230   2.455   0.979   1.983 -0.6469  0.3775  0.1099
   17DOPC   O12 2231   2.431   1.065   2.209 -0.7729 -0.1301  0.0015
   17DOPC   O11 2232   2.624   1.130   2.075 -0.0778 -0.3913  0.5864
   17DOPC    C1 2233   2.717   1.022   2.087 -0.0585  0.6982 -0.1120
   17DOPC    HA 2234   2.815   1.052   2.043 -1.3855  1.6383 -2.6089
   17DOPC    HB 2235   2.698   0.937   2.018  1.3884 -0.7063  1.1305
   17DOPC    C2 2236   2.726   0.966   2.228  0.6206 -0.0648 -0.0091
   17DOPC    HS 2237   2.624   0.927   2.251  2.3123 -4.1336  1.5864
   17DOPC   O21 2238   2.774   1.077   2.307 -0.0797  0.2743 -0.0952
   17DOPC   C21 2239   2.731   1.060   2.430 -0.2687  0.0600 -0.2655
   17DOPC   O22 2240   2.651   0.974   2.465 -0.0461 -0.5332  0.1715
   17DOPC   C22 2241   2.790   1.166   2.522  0.0285  0.4543 -0.0103
   17DOPC   H2R 2242   2.763   1.270   2.494  4.3590  2.1143  1.0955
   17DOPC   H2S 2243   2.900   1.156   2.508 -0.1894 -0.4163 -1.2418
   17DOPC    C3 2244   2.822   0.848   2.230 -0.0105  0.1308 -0.7607
   17DOPC    HX 2245   2.915   0.877   2.177  1.1326  0.5646  1.3783
   17DOPC    HY 2246   2.792   0.764   2.164 -0.2020  0.5722 -1.2348
   17DOPC   O31 2247   2.870   0.807   2.362 -0.5642  0.8416 -1.0409
   17DOPC   C31 2248   2.802   0.717   2.417 -0.3378  0.5085  0.1695
   17DOPC   O32 2249   2.722   0.644   2.359  0.5027  0.5463 -0.2586
   17DOPC   C32 2250   2.838   0.691   2.565 -0.4251 -0.0659  0.1272
   17DOPC   H2X 2251   2.944   0.666   2.583 -0.9107 -0.3404  3.3055
   17DOPC   H2Y 2252   2.822   0.781   2.629  1.2316  0.7743 -0.5964
   17DOPC   C23 2253   2.773   1.153   2.676 -0.5471 -0.5444 -0.0265
   17DOPC   H3R 2254   2.812   1.050   2.689 -0.4902 -0.8200 -2.0428
   17DOPC   H3S 2255   2.664   1.146   2.696 -0.6017  3.2075  1.9436
   17DOPC   C24 2256   2.858   1.237   2.761  0.1846  0.5756 -0.2679
   17DOPC   H4R 2257   2.841   1.214   2.868 -0.0532  0.7446 -0.2676
   17DOPC   H4S 2258   2.833   1.345   2.752 -1.9250  0.2150  0.6147
   17DOPC   C25 2259   3.010   1.211   2.730  0.3261 -0.2995 -0.6452
   17DOPC   H5R 2260   3.014   1.269   2.636  1.0168  4.0253  1.7949
   17DOPC   H5S 2261   3.027   1.107   2.693 -1.6562 -0.2847 -1.7189
   17DOPC   C26 2262   3.117   1.258   2.831  0.1737  0.2505  0.5153
   17DOPC   H6R 2263   3.128   1.188   2.916  1.0160  1.6591  1.6012
   17DOPC   H6S 2264   3.083   1.346   2.889 -0.2328  0.4988 -0.0799
   17DOPC   C27 2265   3.245   1.295   2.750 -0.0458  0.7583  0.5731
   17DOPC   H7R 2266   3.208   1.377   2.685 -0.2938  0.7663  0.7212
   17DOPC   H7S 2267   3.271   1.207   2.687 -0.6450  0.2960  0.9580
   17DOPC   C28 2268   3.358   1.328   2.850 -0.6958  0.1635  0.2459
   17DOPC   H8R 2269   3.456   1.334   2.798  0.4094  2.3333  2.3715
   17DOPC   H8S 2270   3.368   1.241   2.918  1.3926  1.0781  1.2055
   17DOPC   C29 2271   3.347   1.452   2.929  0.0964  0.3847 -0.2034
   17DOPC   H9R 2272   3.330   1.544   2.872  1.1140 -0.4335 -1.8956
   17DOPC  C210 2273   3.349   1.457   3.061 -0.2658 -0.1079  0.0792
   17DOPC  H10R 2274   3.364   1.558   3.101 -0.4663 -0.0753  0.0685
   17DOPC  C211 2275   3.387   1.351   3.162  0.6725  0.2043 -0.2861
   17DOPC  H11R 2276   3.488   1.316   3.130 -0.3957 -1.3803 -2.1000
   17DOPC  H11S 2277   3.317   1.265   3.156 -0.2834  0.8366  1.1269
   17DOPC  C212 2278   3.391   1.397   3.310  0.0890  0.0334  0.4321
   17DOPC  H12R 2279   3.409   1.304   3.369 -0.3019 -0.7978 -0.7420
   17DOPC  H12S 2280   3.293   1.448   3.324 -0.0997  0.2050 -1.3116
   17DOPC  C213 2281   3.517   1.477   3.355  0.4533 -0.2243  0.1959
   17DOPC  H13R 2282   3.538   1.549   3.274 -0.1337  0.3789  0.5730
   17DOPC  H13S 2283   3.600   1.404   3.371  0.1488 -0.6464 -0.1354
   17DOPC  C214 2284   3.484   1.565   3.473 -0.7806  0.6897 -0.1221
   17DOPC  H14R 2285   3.570   1.611   3.526  0.4262  0.2187 -1.6149
   17DOPC  H14S 2286   3.428   1.494   3.539 -0.7295  0.2966 -0.4984
   17DOPC  C215 2287   3.393   1.682   3.447 -0.3863 -0.1669  0.7950
   17DOPC  H15R 2288   3.291   1.640   3.429 -0.2679 -0.1433  0.0189
   17DOPC  H15S 2289   3.437   1.751   3.372 -0.8424  1.7514  2.2204
   17DOPC  C216 2290   3.381   1.768   3.576 -0.6425  0.2514  0.0381
   17DOPC  H16R 2291   3.482   1.805   3.604  0.1503 -2.5000  1.1006
   17DOPC  H16S 2292   3.336   1.699   3.650  0.3899 -1.5028 -0.9193
   17DOPC  C217 2293   3.283   1.886   3.560 -0.3592  0.0184 -0.9042
   17DOPC  H17R 2294   3.182   1.848   3.532 -1.6829  2.0963  0.7591
   17DOPC  H17S 2295   3.314   1.950   3.475 -1.4362  1.0970 -0.5133
   17DOPC  C218 2296   3.265   1.964   3.693 -0.0146  0.3022  0.7926
   17DOPC  H18R 2297   3.189   1.919   3.760  0.3679 -0.1452  0.9273
   17DOPC  H18S 2298   3.239   2.069   3.665  1.3413  0.1405 -1.3338
   17DOPC  H18T 2299   3.365   1.966   3.743  0.6813 -0.5325 -0.5201
   17DOPC   C33 2300   2.747   0.582   2.618 -0.1457 -0.2712 -0.3377
   17DOPC   H3X 2301   2.782   0.483   2.580 -0.2713 -0.0527 -1.0321
   17DOPC   H3Y 2302   2.640   0.601   2.595  0.3115  1.5487 -1.0557
   17DOPC   C34 2303   2.756   0.577   2.770  0.0195  0.0497 -1.0671
   17DOPC   H4X 2304   2.731   0.668   2.829 -2.9246 -0.8766 -0.6864
   17DOPC   H4Y 2305   2.861   0.557   2.800  0.1977 -1.0670 -2.3782
   17DOPC   C35 2306   2.686   0.460   2.838  0.4277 -0.5039  0.3247
   17DOPC   H5X 2307   2.703   0.373   2.771  0.2584 -0.1809 -0.1434
   17DOPC   H5Y 2308   2.576   0.479   2.837  0.1821 -1.6447 -1.9964
   17DOPC   C36 2309   2.739   0.422   2.974  0.0287 -0.3937 -0.0146
   17DOPC   H6X 2310   2.847   0.397   2.967 -0.0907 -1.5301  1.6130
   17DOPC   H6Y 2311   2.738   0.506   3.046  1.2216  0.3645 -0.8485
   17DOPC   C37 2312   2.663   0.294   3.023 -0.3676 -0.6447 -0.4766
   17DOPC   H7X 2313   2.553   0.310   3.013 -0.8372 -4.3683 -3.0341
   17DOPC   H7Y 2314   2.684   0.207   2.957  0.7087 -0.3484 -0.5424
   17DOPC   C38 2315   2.702   0.261   3.163  0.0268 -0.1917 -0.5843
   17DOPC   H8X 2316   2.691   0.347   3.232 -0.9608 -1.8478  1.4601
   17DOPC   H8Y 2317   2.810   0.236   3.169  0.2718  0.8400 -0.4478
   17DOPC   C39 2318   2.614   0.150   3.226 -1.0019  0.8142  0.1851
   17DOPC   H9X 2319   2.645   0.045   3.224 -1.1604  0.6612  2.5208
   17DOPC  C310 2320   2.491   0.171   3.291 -0.4776 -0.3159  0.3249
   17DOPC  H10X 2321   2.427   0.086   3.318 -1.9134  0.0373 -1.7213
   17DOPC  C311 2322   2.432   0.308   3.312 -0.2007  0.0775 -0.3241
   17DOPC  H11X 2323   2.463   0.382   3.235  0.1853  0.4454  0.1795
   17DOPC  H11Y 2324   2.444   0.351   3.413 -0.1309 -0.3425 -0.1513
   17DOPC  C312 2325   2.279   0.315   3.304  0.5180  0.2014  0.1793
   17DOPC  H12X 2326   2.236   0.406   3.350  0.0204 -0.2931  0.7043
   17DOPC  H12Y 2327   2.235   0.227   3.355 -0.1449  0.5573  0.2349
   17DOPC  C313 2328   2.230   0.322   3.159  0.2047  0.1565 -0.9297
   17DOPC  H13X 2329   2.316   0.311   3.091  0.6781  1.6642 -0.6074
   17DOPC  H13Y 2330   2.164   0.239   3.127  0.1449  0.7851 -2.4989
   17DOPC  C314 2331   2.162   0.453   3.125  0.0861 -0.2475 -0.6759
   17DOPC  H14X 2332   2.069   0.444   3.185  0.5894  1.9141  0.5434
   17DOPC  H14Y 2333   2.224   0.540   3.158 -3.0833  2.0776 -0.3790
   17DOPC  C315 2334   2.124   0.472   2.975 -0.3172  0.2110  0.7816
   17DOPC  H15X 2335   2.038   0.542   2.961 -0.3524  0.1027  0.4478
   17DOPC  H15Y 2336   2.098   0.375   2.929  2.6251 -0.0985 -0.4301
   17DOPC  C316 2337   2.249   0.524   2.898  0.4541 -0.4881 -0.2004
   17DOPC  H16X 2338   2.266   0.627   2.936  1.0010 -0.4608 -0.5168
   17DOPC  H16Y 2339   2.331   0.452   2.916  0.2783 -0.4601  0.7697
   17DOPC  C317 2340   2.226   0.512   2.754 -0.1051 -0.2255  1.6562
   17DOPC  H17X 2341   2.178   0.416   2.724  1.1526 -0.3699 -0.1061
   17DOPC  H17Y 2342   2.149   0.584   2.719 -0.7173 -1.9948 -0.9045
   17DOPC  C318 2343   2.348   0.536   2.682  1.0157  0.0109  0.3575
   17DOPC  H18X 2344   2.330   0.565   2.576  2.5716  1.7235  0.5046
   17DOPC  H18Y 2345   2.411   0.611   2.735 -0.4291  0.5732  1.3451
   17DOPC  H18Z 2346   2.417   0.448   2.682  2.6719  1.2442  1.0468
   18DOPC     N 2347   0.568   3.994   6.698  0.8788  0.2361 -0.3776
   18DOPC   C12 2348   0.567   3.898   6.570  0.2281  0.1841 -0.6365
   18DOPC  H12A 2349   0.534   3.946   6.480  2.1379  0.5093 -1.2032
   18DOPC  H12B 2350   0.497   3.816   6.581  1.4011 -0.7328  0.2182
   18DOPC   C13 2351   0.661   4.112   6.677 -0.1753 -0.2711 -0.6345
   18DOPC  H13A 2352   0.764   4.078   6.669 -0.4619 -1.2000 -0.5034
   18DOPC  H13B 2353   0.634   4.163   6.586  0.0219 -1.6361 -1.4923
   18DOPC  H13C 2354   0.652   4.180   6.761 -2.9913 -0.2057 -0.8921
   18DOPC   C14 2355   0.614   3.914   6.815 -0.5237 -0.8874 -0.0598
   18DOPC  H14A 2356   0.709   3.867   6.794 -0.6253 -0.7830 -0.7692
   18DOPC  H14B 2357   0.634   3.979   6.899 -3.4231  0.3354 -0.1921
   18DOPC  H14C 2358   0.545   3.837   6.846  0.3715 -1.0228  1.7417
   18DOPC   C15 2359   0.428   4.042   6.729  0.6316  0.5286  0.4018
   18DOPC  H15A 2360   0.354   3.965   6.749  0.9558 -0.6198 -2.3270
   18DOPC  H15B 2361   0.403   4.111   6.649  2.5602  1.0484  0.1906
   18DOPC  H15C 2362   0.426   4.108   6.814 -1.9381  0.6987  0.3042
   18DOPC   C11 2363   0.701   3.831   6.537 -0.3620 -0.4827  0.6714
   18DOPC  H11A 2364   0.745   3.797   6.633  2.3999 -0.7191 -0.5580
   18DOPC  H11B 2365   0.700   3.738   6.476  1.4193 -0.5420  0.6707
   18DOPC     P 2366   0.792   3.975   6.340 -0.1353  0.0755  0.1431
   18DOPC   O13 2367   0.916   4.044   6.311  0.2092  0.7463  0.3284
   18DOPC   O14 2368   0.669   4.053   6.322 -0.6964 -0.0548  0.0146
   18DOPC   O12 2369   0.803   3.927   6.493  0.1846  1.8130  0.0700
   18DOPC   O11 2370   0.790   3.838   6.266 -0.2441 -0.0065 -0.3215
   18DOPC    C1 2371   0.667   3.804   6.201 -0.3674  0.7745  0.3347
   18DOPC    HA 2372   0.575   3.836   6.254 -1.0488 -0.4123 -0.0842
   18DOPC    HB 2373   0.667   3.693   6.200 -1.2866  0.7242  2.1198
   18DOPC    C2 2374   0.668   3.851   6.057 -0.0053 -1.1992  0.2468
   18DOPC    HS 2375   0.666   3.962   6.053  1.5370 -1.1878 -0.9697
   18DOPC   O21 2376   0.567   3.778   5.977  0.1211  0.6801  0.1292
   18DOPC   C21 2377   0.491   3.857   5.899  0.3320 -0.2130 -0.4370
   18DOPC   O22 2378   0.510   3.976   5.879 -0.2636  0.0952  0.3277
   18DOPC   C22 2379   0.368   3.779   5.851 -0.2413 -0.1094 -0.2224
   18DOPC   H2R 2380   0.290   3.847   5.812  0.3373  0.0511 -1.1247
   18DOPC   H2S 2381   0.336   3.733   5.947  1.0143 -0.0917  0.2304
   18DOPC    C3 2382   0.804   3.831   5.985  0.1988 -0.4098 -0.0862
   18DOPC    HX 2383   0.847   3.751   6.049  0.3396 -0.5421 -0.3438
   18DOPC    HY 2384   0.877   3.914   5.995  1.9708 -1.8596 -0.3252
   18DOPC   O31 2385   0.802   3.774   5.852 -0.4889 -0.0119 -0.5084
   18DOPC   C31 2386   0.806   3.859   5.754  0.0608 -0.2529  0.2562
   18DOPC   O32 2387   0.805   3.978   5.765 -0.5270 -0.1030 -0.2325
   18DOPC   C32 2388   0.813   3.780   5.626  0.3279 -0.0564  0.1731
   18DOPC   H2X 2389   0.918   3.783   5.590 -0.0995 -0.5036 -1.1746
   18DOPC   H2Y 2390   0.786   3.675   5.650 -1.9025  0.4458  0.0736
   18DOPC   C23 2391   0.406   3.679   5.742 -0.0138 -0.5955  0.3456
   18DOPC   H3R 2392   0.341   3.589   5.752 -3.0358  1.4397  0.5077
   18DOPC   H3S 2393   0.509   3.640   5.733  1.0396  2.1073 -0.0153
   18DOPC   C24 2394   0.379   3.737   5.596  0.3756 -0.2722 -0.7357
   18DOPC   H4R 2395   0.421   3.839   5.590  0.8762 -0.2970  1.6420
   18DOPC   H4S 2396   0.268   3.744   5.591  0.2916 -1.3003 -0.6638
   18DOPC   C25 2397   0.420   3.644   5.484 -0.3586  0.4210  0.7882
   18DOPC   H5R 2398   0.352   3.556   5.472  1.3761 -1.1757  2.1081
   18DOPC   H5S 2399   0.524   3.610   5.504 -0.0200  0.6678 -0.4525
   18DOPC   C26 2400   0.422   3.720   5.344 -0.2478  0.3763 -0.5856
   18DOPC   H6R 2401   0.487   3.809   5.356 -1.1365  0.8333  1.0246
   18DOPC   H6S 2402   0.319   3.757   5.322 -1.2765 -1.3430  1.0821
   18DOPC   C27 2403   0.483   3.628   5.234  0.8332 -0.7279 -0.4296
   18DOPC   H7R 2404   0.581   3.588   5.271  0.5270  0.1763  1.4466
   18DOPC   H7S 2405   0.492   3.689   5.142  1.9560 -0.6125 -0.2674
   18DOPC   C28 2406   0.397   3.502   5.192  0.3827 -0.3839  0.2991
   18DOPC   H8R 2407   0.297   3.537   5.158  0.5016  0.3020  0.6386
   18DOPC   H8S 2408   0.372   3.432   5.274  2.7086 -1.3020  0.2833
   18DOPC   C29 2409   0.455   3.417   5.085  0.3591  0.1236 -0.2991
   18DOPC   H9R 2410   0.494   3.323   5.127 -0.7707  0.4258  1.5326
   18DOPC  C210 2411   0.440   3.424   4.948 -0.9072  0.2106 -0.2130
   18DOPC  H10R 2412   0.500   3.357   4.885  1.0990  0.1427  1.6164
   18DOPC  C211 2413   0.366   3.525   4.865 -0.0716 -0.8073 -0.3150
   18DOPC  H11R 2414   0.417   3.560   4.772  1.0697  2.0647  1.2389
   18DOPC  H11S 2415   0.350   3.611   4.934 -1.4165 -1.4762  0.2396
   18DOPC  C212 2416   0.227   3.469   4.830 -0.5177 -0.2136  0.0209
   18DOPC  H12R 2417   0.163   3.480   4.920  0.7134 -1.6020  1.1097
   18DOPC  H12S 2418   0.232   3.362   4.800 -0.0417 -0.3593  0.6150
   18DOPC  C213 2419   0.151   3.553   4.727  0.9607 -0.5206  0.2541
   18DOPC  H13R 2420   0.146   3.658   4.764 -0.1942 -0.8302  1.0346
   18DOPC  H13S 2421   0.047   3.516   4.741  2.4924 -5.2796  0.7001
   18DOPC  C214 2422   0.197   3.543   4.582  0.1681  0.2360  0.0025
   18DOPC  H14R 2423   0.214   3.437   4.554 -2.7356 -0.0700 -0.9492
   18DOPC  H14S 2424   0.296   3.593   4.586 -0.5576  1.6777  0.5344
   18DOPC  C215 2425   0.103   3.604   4.483  0.4811  0.1827  0.1075
   18DOPC  H15R 2426   0.136   3.596   4.377  0.2162  0.2392  0.0190
   18DOPC  H15S 2427   0.081   3.708   4.514 -1.4432 -0.1437 -0.0255
   18DOPC  C216 2428  -0.034   3.538   4.470 -0.5631  0.1072  0.1491
   18DOPC  H16R 2429  -0.073   3.514   4.571  0.5701 -0.3866  0.4894
   18DOPC  H16S 2430  -0.019   3.445   4.412 -0.4574  0.4933 -0.4569
   18DOPC  C217 2431  -0.127   3.622   4.387  0.2735  0.2439  0.5341
   18DOPC  H17R 2432  -0.083   3.662   4.293 -1.2543 -1.5771 -1.0473
   18DOPC  H17S 2433  -0.156   3.717   4.437 -0.3554  0.2241  0.2278
   18DOPC  C218 2434  -0.255   3.540   4.359  0.7593 -0.6406 -0.8415
   18DOPC  H18R 2435  -0.255   3.483   4.264 -0.3402 -0.9058 -0.6953
   18DOPC  H18S 2436  -0.338   3.612   4.343  0.4766 -0.7882 -0.0796
   18DOPC  H18T 2437  -0.291   3.478   4.444  0.3867  0.4359 -0.2011
   18DOPC   C33 2438   0.719   3.851   5.523  0.2228  0.5652  0.3902
   18DOPC   H3X 2439   0.626   3.892   5.569 -0.1061  0.4831 -0.1902
   18DOPC   H3Y 2440   0.688   3.768   5.456  0.7063  0.7071 -0.0134
   18DOPC   C34 2441   0.792   3.955   5.442 -0.1731  0.0149  0.0614
   18DOPC   H4X 2442   0.865   3.895   5.384 -2.3342 -1.2484 -1.4949
   18DOPC   H4Y 2443   0.837   4.032   5.509  1.5970 -0.9356  0.0389
   18DOPC   C35 2444   0.710   4.022   5.332  0.4697 -0.1312 -0.0931
   18DOPC   H5X 2445   0.625   4.076   5.378 -0.2314  0.6371 -2.1889
   18DOPC   H5Y 2446   0.678   3.948   5.255 -0.0217  1.2589 -1.2704
   18DOPC   C36 2447   0.776   4.132   5.248 -0.4575 -0.2201 -0.5444
   18DOPC   H6X 2448   0.836   4.092   5.163 -0.8443 -2.1042  0.0029
   18DOPC   H6Y 2449   0.691   4.177   5.192 -1.0071 -0.4866  0.0601
   18DOPC   C37 2450   0.843   4.247   5.331 -0.2897  0.5942  0.3155
   18DOPC   H7X 2451   0.773   4.297   5.401  0.6726  1.4878  0.6716
   18DOPC   H7Y 2452   0.932   4.211   5.387 -0.3559  0.6228  0.4385
   18DOPC   C38 2453   0.887   4.369   5.248 -0.0799  0.2516 -0.0671
   18DOPC   H8X 2454   0.957   4.328   5.172 -0.9743  0.5143 -1.0571
   18DOPC   H8Y 2455   0.951   4.424   5.321 -0.6137  1.1474 -0.2628
   18DOPC   C39 2456   0.789   4.456   5.189 -0.0532  0.2969  0.5955
   18DOPC   H9X 2457   0.739   4.517   5.266  0.4848  1.6135 -0.0591
   18DOPC  C310 2458   0.772   4.488   5.059 -0.2887  0.1683 -0.2498
   18DOPC  H10X 2459   0.677   4.539   5.037 -0.4680  0.6367  1.5120
   18DOPC  C311 2460   0.847   4.444   4.935  0.3134  0.3678  0.1656
   18DOPC  H11X 2461   0.947   4.409   4.969  0.3464  1.2576  1.0550
   18DOPC  H11Y 2462   0.877   4.535   4.877 -0.3630 -0.4000 -1.4547
   18DOPC  C312 2463   0.781   4.327   4.858 -0.3688  0.0651 -0.9768
   18DOPC  H12X 2464   0.771   4.244   4.931 -2.1645 -1.1918 -2.5399
   18DOPC  H12Y 2465   0.865   4.292   4.795  1.1856  0.0746  0.9650
   18DOPC  C313 2466   0.646   4.359   4.781 -0.5826 -0.5238 -0.5738
   18DOPC  H13X 2467   0.609   4.257   4.756 -0.9041 -0.8380  1.0907
   18DOPC  H13Y 2468   0.578   4.412   4.851 -1.7321 -0.5505 -1.6492
   18DOPC  C314 2469   0.675   4.431   4.651  0.4376  0.2694  0.0553
   18DOPC  H14X 2470   0.740   4.520   4.667 -0.1216  0.4308  1.5360
   18DOPC  H14Y 2471   0.738   4.358   4.595 -0.2692 -1.2888  1.2493
   18DOPC  C315 2472   0.548   4.465   4.565 -0.4283  0.1288  0.0552
   18DOPC  H15X 2473   0.568   4.560   4.511  1.1069 -1.0166 -1.5252
   18DOPC  H15Y 2474   0.464   4.481   4.637  0.8760  0.6560  1.5035
   18DOPC  C316 2475   0.506   4.369   4.448 -0.3804  0.0101  0.0637
   18DOPC  H16X 2476   0.574   4.381   4.361 -1.3470 -0.2959 -0.7398
   18DOPC  H16Y 2477   0.528   4.266   4.484  0.3651 -1.4326 -4.0613
   18DOPC  C317 2478   0.365   4.393   4.400 -0.2560  0.5305 -0.1087
   18DOPC  H17X 2479   0.330   4.319   4.324  1.0125  0.0093 -0.2141
   18DOPC  H17Y 2480   0.295   4.379   4.485 -0.9997  1.8831 -0.4802
   18DOPC  C318 2481   0.343   4.525   4.335 -0.3147 -0.8377  0.4564
   18DOPC  H18X 2482   0.386   4.530   4.233 -0.5773 -0.2295  0.3705
   18DOPC  H18Y 2483   0.236   4.554   4.326  0.2298  1.3327  0.5237
   18DOPC  H18Z 2484   0.378   4.604   4.405 -0.9134 -2.1213  2.3051
   19DOPC     N 2485   1.572   1.687   3.256 -0.0835  0.4216 -0.2123
   19DOPC   C12 2486   1.565   1.816   3.179  0.1091  0.2889 -0.0997
   19DOPC  H12A 2487   1.538   1.890   3.254 -2.2975 -0.0773 -0.5199
   19DOPC  H12B 2488   1.474   1.808   3.122 -1.1395  4.6629  0.9249
   19DOPC   C13 2489   1.443   1.646   3.313  0.4413 -0.7553  0.6667
   19DOPC  H13A 2490   1.396   1.715   3.382 -2.7613  0.1778 -2.1951
   19DOPC  H13B 2491   1.369   1.623   3.238 -1.7067 -0.6924  2.6388
   19DOPC  H13C 2492   1.449   1.551   3.365  2.3707 -2.1867 -1.9461
   19DOPC   C14 2493   1.677   1.700   3.370 -0.0865  0.5621  0.4744
   19DOPC  H14A 2494   1.637   1.768   3.444  0.0152  2.4360 -1.1178
   19DOPC  H14B 2495   1.704   1.602   3.407 -1.6628 -0.7006 -1.5262
   19DOPC  H14C 2496   1.763   1.750   3.327 -1.0257 -0.8203 -3.4006
   19DOPC   C15 2497   1.621   1.589   3.153  0.1400 -0.6095 -0.8023
   19DOPC  H15A 2498   1.650   1.493   3.192 -0.2251 -0.5254 -0.3084
   19DOPC  H15B 2499   1.705   1.633   3.103 -0.8977  0.6660 -1.5063
   19DOPC  H15C 2500   1.538   1.578   3.085  0.2675 -2.5946 -0.6938
   19DOPC   C11 2501   1.686   1.866   3.093 -0.1108 -0.2337 -0.0922
   19DOPC  H11A 2502   1.690   1.976   3.106  0.1107 -0.0548 -1.5087
   19DOPC  H11B 2503   1.785   1.841   3.137 -0.9252 -0.3068  1.7618
   19DOPC     P 2504   1.783   1.762   2.867  0.3163  0.2608 -0.0573
   19DOPC   O13 2505   1.887   1.864   2.838 -0.3943  0.3263  0.2222
   19DOPC   O14 2506   1.720   1.700   2.751  0.7770  0.4728 -0.4741
   19DOPC   O12 2507   1.667   1.819   2.955  0.1743  0.9391  0.0955
   19DOPC   O11 2508   1.850   1.659   2.956  0.3550  0.4324  0.2823
   19DOPC    C1 2509   1.920   1.547   2.909 -0.2367 -0.4763  0.4968
   19DOPC    HA 2510   2.006   1.584   2.849 -1.5553 -0.0281 -1.1756
   19DOPC    HB 2511   1.866   1.475   2.844 -0.7243 -0.5420  0.9649
   19DOPC    C2 2512   1.970   1.468   3.035  0.0906  0.2150  0.1011
   19DOPC    HS 2513   2.045   1.395   2.999  1.1286  1.7561 -1.0195
   19DOPC   O21 2514   1.864   1.409   3.101 -0.3423 -0.1762  0.4325
   19DOPC   C21 2515   1.824   1.296   3.049  0.8952  0.1514 -0.0057
   19DOPC   O22 2516   1.863   1.243   2.952  0.0343 -0.3880  0.0745
   19DOPC   C22 2517   1.705   1.244   3.133  0.3498 -0.1762 -0.3706
   19DOPC   H2R 2518   1.674   1.144   3.097  0.6063 -0.8684  1.2237
   19DOPC   H2S 2519   1.623   1.319   3.129 -0.6317 -1.2784 -1.3420
   19DOPC    C3 2520   2.035   1.568   3.135  0.2044  0.6318  0.2255
   19DOPC    HX 2521   1.957   1.624   3.192  0.9119 -0.2088  2.0630
   19DOPC    HY 2522   2.085   1.644   3.071 -1.3276 -0.3888 -2.3689
   19DOPC   O31 2523   2.131   1.517   3.224 -0.0758  0.1566 -0.2982
   19DOPC   C31 2524   2.087   1.503   3.351 -0.6795  0.0609  0.0810
   19DOPC   O32 2525   1.981   1.551   3.391  0.0653 -0.5404 -0.5739
   19DOPC   C32 2526   2.189   1.434   3.439  0.1410  0.0598  0.6641
   19DOPC   H2X 2527   2.234   1.347   3.385 -3.4839 -2.8961  1.9708
   19DOPC   H2Y 2528   2.261   1.513   3.467 -0.7690  0.7799  0.9967
   19DOPC   C23 2529   1.754   1.232   3.278  0.1962 -0.6230 -0.3995
   19DOPC   H3R 2530   1.791   1.332   3.311 -1.2437 -0.3321  0.4312
   19DOPC   H3S 2531   1.850   1.176   3.282 -0.4972 -1.8417  3.4443
   19DOPC   C24 2532   1.642   1.178   3.376  0.7128  0.5963  0.5588
   19DOPC   H4R 2533   1.542   1.226   3.377 -0.3563 -1.4637 -0.0211
   19DOPC   H4S 2534   1.690   1.179   3.476  1.6408 -1.0206  0.1645
   19DOPC   C25 2535   1.599   1.026   3.351  0.0741 -0.1351  0.3037
   19DOPC   H5R 2536   1.687   0.963   3.327  1.4459  2.0032 -0.5633
   19DOPC   H5S 2537   1.541   1.037   3.257 -1.7786 -1.7096  1.1964
   19DOPC   C26 2538   1.510   0.961   3.454  0.2863  0.7122 -0.2861
   19DOPC   H6R 2539   1.407   1.002   3.459  0.2429  0.6018 -0.2640
   19DOPC   H6S 2540   1.560   0.969   3.553  0.7584  2.0349 -0.6119
   19DOPC   C27 2541   1.490   0.806   3.434 -0.3204 -0.0659 -0.6263
   19DOPC   H7R 2542   1.460   0.780   3.331  0.3984 -0.2952 -0.7821
   19DOPC   H7S 2543   1.410   0.767   3.501 -1.3361 -2.0884 -2.8869
   19DOPC   C28 2544   1.615   0.724   3.471  0.2491 -0.0849 -0.4073
   19DOPC   H8R 2545   1.687   0.731   3.387 -0.1778 -0.7057 -0.8316
   19DOPC   H8S 2546   1.593   0.616   3.463  1.2695 -0.3699  0.4776
   19DOPC   C29 2547   1.691   0.748   3.600 -0.0387  0.1222  0.1554
   19DOPC   H9R 2548   1.640   0.706   3.688 -4.1965 -1.0558 -2.5425
   19DOPC  C210 2549   1.813   0.806   3.608 -0.4964  0.7597  0.7027
   19DOPC  H10R 2550   1.859   0.834   3.704 -0.4525  0.8448  0.6575
   19DOPC  C211 2551   1.892   0.835   3.483  0.4041  0.3681 -0.6872
   19DOPC  H11R 2552   1.890   0.943   3.458  3.7053  1.1204  1.6290
   19DOPC  H11S 2553   1.878   0.769   3.395  0.4790  0.3783 -0.7065
   19DOPC  C212 2554   2.042   0.816   3.508 -0.3846  0.5402 -0.0656
   19DOPC  H12R 2555   2.070   0.895   3.581 -2.4585  0.4245  0.9215
   19DOPC  H12S 2556   2.090   0.841   3.411 -1.4065 -1.6177 -1.1970
   19DOPC  C213 2557   2.080   0.672   3.560  0.1118 -0.0133 -0.3409
   19DOPC  H13R 2558   2.087   0.598   3.477 -0.7687 -0.5395  0.0429
   19DOPC  H13S 2559   2.014   0.632   3.639  2.8911  1.6318  3.0974
   19DOPC  C214 2560   2.220   0.675   3.625  0.0983 -0.3229  0.6100
   19DOPC  H14R 2561   2.207   0.710   3.729  0.6112  0.9276  0.2774
   19DOPC  H14S 2562   2.295   0.737   3.571  1.6768 -1.0626  1.8531
   19DOPC  C215 2563   2.284   0.533   3.640  0.1412 -0.2286  0.5902
   19DOPC  H15R 2564   2.390   0.549   3.669 -0.0758  1.5119  0.5885
   19DOPC  H15S 2565   2.295   0.484   3.541  0.1900 -0.8058  0.8798
   19DOPC  C216 2566   2.208   0.442   3.738  0.2839 -1.0181  0.5789
   19DOPC  H16R 2567   2.113   0.411   3.691  0.6296  0.8759 -1.5375
   19DOPC  H16S 2568   2.174   0.485   3.834 -3.1261 -0.7709 -0.6207
   19DOPC  C217 2569   2.277   0.308   3.770  0.1356  0.1686  0.1220
   19DOPC  H17R 2570   2.233   0.257   3.857  0.1689 -0.0804 -0.0065
   19DOPC  H17S 2571   2.380   0.335   3.804  0.0751  1.0917 -0.3810
   19DOPC  C218 2572   2.280   0.211   3.651 -0.2448 -0.4264 -0.6549
   19DOPC  H18R 2573   2.346   0.249   3.570 -0.3658  0.5014 -0.3251
   19DOPC  H18S 2574   2.177   0.204   3.611 -0.0260 -0.6637 -1.1904
   19DOPC  H18T 2575   2.318   0.112   3.686  0.0349 -0.8102 -2.0072
   19DOPC   C33 2576   2.132   1.387   3.574 -0.7520 -0.8133  0.5413
   19DOPC   H3X 2577   2.084   1.471   3.628  0.2412 -0.7517  1.3441
   19DOPC   H3Y 2578   2.221   1.345   3.625 -1.3639 -1.1600  1.3270
   19DOPC   C34 2579   2.023   1.284   3.543  0.1289 -0.2236  0.0765
   19DOPC   H4X 2580   2.051   1.233   3.449  1.5829 -0.7410  0.7720
   19DOPC   H4Y 2581   1.923   1.329   3.523  0.8620  0.4712 -2.3903
   19DOPC   C35 2582   2.017   1.175   3.646 -0.0570  0.6448 -0.5514
   19DOPC   H5X 2583   2.110   1.116   3.631 -0.3798 -0.0228  0.0456
   19DOPC   H5Y 2584   1.936   1.102   3.625  2.0658 -1.3407 -2.3450
   19DOPC   C36 2585   2.012   1.227   3.788 -0.4312 -0.0488  0.3034
   19DOPC   H6X 2586   2.084   1.309   3.808  0.9559 -0.7063 -1.7036
   19DOPC   H6Y 2587   1.904   1.248   3.804 -0.7270 -1.5557  0.5208
   19DOPC   C37 2588   2.029   1.128   3.906 -0.5127  0.2483  0.1032
   19DOPC   H7X 2589   1.985   1.165   4.001 -1.5862  0.9068 -0.6305
   19DOPC   H7Y 2590   1.981   1.031   3.882 -1.1216  0.3941  0.6848
   19DOPC   C38 2591   2.170   1.091   3.932  0.8023  0.6018  0.2865
   19DOPC   H8X 2592   2.213   1.066   3.832 -2.3917  0.4257 -1.1814
   19DOPC   H8Y 2593   2.176   0.997   3.991  1.7679 -1.7231 -3.1746
   19DOPC   C39 2594   2.258   1.197   3.989 -0.4274  0.3878 -0.6821
   19DOPC   H9X 2595   2.304   1.268   3.919  1.1895 -0.7674 -0.8421
   19DOPC  C310 2596   2.311   1.190   4.113  0.0385  0.4999  0.2125
   19DOPC  H10X 2597   2.378   1.274   4.137  0.7441 -0.1105  0.4275
   19DOPC  C311 2598   2.285   1.103   4.227 -0.2099  0.3103  0.0249
   19DOPC  H11X 2599   2.250   1.003   4.193 -2.0228  0.4351  1.3845
   19DOPC  H11Y 2600   2.196   1.146   4.278 -0.0683  0.9368 -0.2511
   19DOPC  C312 2601   2.391   1.072   4.340  0.0986  0.9551  0.1169
   19DOPC  H12X 2602   2.350   1.041   4.438 -1.2831 -0.1301 -0.7487
   19DOPC  H12Y 2603   2.451   1.163   4.364  0.1331  1.0258 -0.2233
   19DOPC  C313 2604   2.486   0.959   4.295 -0.2474  0.0322  0.0007
   19DOPC  H13X 2605   2.436   0.860   4.281  0.2075 -0.1192 -0.5918
   19DOPC  H13Y 2606   2.540   0.985   4.201  0.0135  0.5170  0.2801
   19DOPC  C314 2607   2.595   0.932   4.406  0.7341  0.6469 -0.6682
   19DOPC  H14X 2608   2.659   1.023   4.412  1.0623  0.3542  0.5609
   19DOPC  H14Y 2609   2.539   0.921   4.501  0.9012 -0.9174 -0.7250
   19DOPC  C315 2610   2.669   0.805   4.393 -1.2832 -0.0185  0.2991
   19DOPC  H15X 2611   2.720   0.799   4.294  0.0100 -2.7239  1.0494
   19DOPC  H15Y 2612   2.600   0.719   4.397  0.1573 -1.5364 -3.1732
   19DOPC  C316 2613   2.776   0.803   4.506 -0.3564  0.3206 -0.7236
   19DOPC  H16X 2614   2.790   0.907   4.543  1.0516 -0.4835  1.1928
   19DOPC  H16Y 2615   2.767   0.745   4.600  3.0230 -0.6190 -0.8498
   19DOPC  C317 2616   2.923   0.777   4.458  0.0719  0.3116 -0.2255
   19DOPC  H17X 2617   2.998   0.780   4.540  0.2653  0.4110 -0.4032
   19DOPC  H17Y 2618   2.913   0.674   4.417 -1.5806  1.2330 -2.3540
   19DOPC  C318 2619   2.982   0.855   4.342  0.0246 -0.1680  0.2768
   19DOPC  H18X 2620   3.091   0.841   4.334  0.0992 -0.4403  1.4951
   19DOPC  H18Y 2621   2.931   0.834   4.246  1.2436 -3.8616  0.2783
   19DOPC  H18Z 2622   2.976   0.965   4.362  0.2204  0.1784 -1.4454
   20DOPC     N 2623   2.097   2.336   2.155 -0.1686 -0.4458  0.0531
   20DOPC   C12 2624   2.143   2.347   2.300 -0.7845  0.0880 -0.4131
   20DOPC  H12A 2625   2.208   2.264   2.324 -2.2829 -0.4570  2.1919
   20DOPC  H12B 2626   2.065   2.318   2.370 -1.3399  2.4878  0.0582
   20DOPC   C13 2627   2.218   2.356   2.057 -1.1649  0.0391 -0.3931
   20DOPC  H13A 2628   2.192   2.316   1.960  0.4429  1.3741 -1.4334
   20DOPC  H13B 2629   2.231   2.464   2.055  0.9439 -0.1892 -0.3996
   20DOPC  H13C 2630   2.309   2.314   2.097 -0.6174  0.3790 -1.2544
   20DOPC   C14 2631   1.991   2.431   2.111  0.1367  0.6986 -0.9615
   20DOPC  H14A 2632   1.909   2.428   2.182  1.3482  0.8909  0.5119
   20DOPC  H14B 2633   2.033   2.530   2.123  1.3437 -0.0011  1.1726
   20DOPC  H14C 2634   1.957   2.415   2.010 -2.8253 -2.1945  0.3123
   20DOPC   C15 2635   2.038   2.202   2.132 -0.4946 -0.4093  0.3184
   20DOPC  H15A 2636   2.104   2.128   2.174  0.2886 -1.2587 -2.2408
   20DOPC  H15B 2637   2.033   2.181   2.026 -0.7901  1.8121 -0.1575
   20DOPC  H15C 2638   1.945   2.192   2.186 -0.9767  0.3571 -0.3352
   20DOPC   C11 2639   2.211   2.485   2.342 -0.1313  0.7986  0.7176
   20DOPC  H11A 2640   2.229   2.483   2.451  0.6182  0.7247  0.5946
   20DOPC  H11B 2641   2.310   2.493   2.292 -0.0834  0.2521  0.7276
   20DOPC     P 2642   2.045   2.661   2.430 -0.0103 -0.1563 -0.3622
   20DOPC   O13 2643   1.979   2.553   2.505  0.5746  0.8848  0.5403
   20DOPC   O14 2644   1.959   2.769   2.382 -0.5629  0.2198 -0.1123
   20DOPC   O12 2645   2.125   2.592   2.312 -0.4878  0.4058 -0.4291
   20DOPC   O11 2646   2.158   2.717   2.533 -0.0994  0.1341 -0.0145
   20DOPC    C1 2647   2.263   2.793   2.478 -0.2078 -0.1960 -0.0474
   20DOPC    HA 2648   2.230   2.894   2.447 -0.0591  0.0815  0.6693
   20DOPC    HB 2649   2.314   2.738   2.396  1.0089  0.4812  0.2301
   20DOPC    C2 2650   2.368   2.813   2.593  0.4400 -0.1385  0.3310
   20DOPC    HS 2651   2.459   2.862   2.551  0.8136 -0.6404  0.5381
   20DOPC   O21 2652   2.414   2.691   2.651  0.5830  0.2614  0.1009
   20DOPC   C21 2653   2.501   2.622   2.575  0.0111 -0.0281 -0.2353
   20DOPC   O22 2654   2.552   2.664   2.473 -0.0877 -0.2960  0.1575
   20DOPC   C22 2655   2.517   2.480   2.617 -0.3757 -0.1643 -0.2610
   20DOPC   H2R 2656   2.555   2.422   2.529  0.7614  3.2540 -2.2038
   20DOPC   H2S 2657   2.413   2.449   2.641 -0.4531  0.8297  0.7234
   20DOPC    C3 2658   2.335   2.920   2.693 -0.0323 -0.4690  0.2637
   20DOPC    HX 2659   2.225   2.918   2.711 -0.4017  0.0974 -1.6922
   20DOPC    HY 2660   2.341   3.017   2.640 -2.2235 -0.6821 -0.4966
   20DOPC   O31 2661   2.423   2.918   2.803 -0.4162 -0.0982 -0.3112
   20DOPC   C31 2662   2.400   2.829   2.900 -0.4689 -0.5242 -0.0772
   20DOPC   O32 2663   2.299   2.765   2.920  0.6195  0.2532  0.4061
   20DOPC   C32 2664   2.533   2.806   2.968  0.1681  0.0159  0.3414
   20DOPC   H2X 2665   2.507   2.725   3.039  1.0468 -2.8263 -2.3977
   20DOPC   H2Y 2666   2.605   2.767   2.893 -0.0322  0.4715 -0.0936
   20DOPC   C23 2667   2.608   2.469   2.737 -0.6647 -0.4527 -0.1067
   20DOPC   H3R 2668   2.599   2.365   2.774  0.2321 -1.1412 -1.7290
   20DOPC   H3S 2669   2.562   2.528   2.819 -1.6452 -1.2028 -0.0984
   20DOPC   C24 2670   2.755   2.506   2.706 -0.0486 -0.2685  0.7542
   20DOPC   H4R 2671   2.763   2.599   2.645 -0.6203  1.5680  3.3319
   20DOPC   H4S 2672   2.794   2.419   2.649  1.1734 -0.0923  1.3114
   20DOPC   C25 2673   2.825   2.541   2.833 -0.4208  0.8609  0.4281
   20DOPC   H5R 2674   2.787   2.633   2.883 -0.0701  1.3606 -0.1978
   20DOPC   H5S 2675   2.931   2.555   2.803 -0.5477  0.5256 -0.2025
   20DOPC   C26 2676   2.823   2.430   2.938  0.2019  0.5541 -0.2780
   20DOPC   H6R 2677   2.847   2.335   2.885 -0.1702  0.5818 -0.4946
   20DOPC   H6S 2678   2.721   2.414   2.979  0.8398 -1.2208  0.7226
   20DOPC   C27 2679   2.920   2.446   3.058  0.1105  0.0573  0.3897
   20DOPC   H7R 2680   2.893   2.537   3.115  1.5823  0.7985 -0.0440
   20DOPC   H7S 2681   3.022   2.454   3.015  0.5830  0.7613  1.6026
   20DOPC   C28 2682   2.914   2.318   3.153  0.1634 -0.4707  0.8503
   20DOPC   H8R 2683   2.902   2.231   3.084 -0.8227  1.3797 -1.4309
   20DOPC   H8S 2684   2.818   2.320   3.209  0.8989 -0.5860  2.1794
   20DOPC   C29 2685   3.015   2.289   3.261 -0.1826  0.0337 -0.1452
   20DOPC   H9R 2686   3.111   2.340   3.243 -0.7867  1.4301  0.4008
   20DOPC  C210 2687   3.010   2.210   3.374  1.0234 -0.7070 -0.3755
   20DOPC  H10R 2688   3.089   2.201   3.449 -1.7721  1.5840  3.1830
   20DOPC  C211 2689   2.884   2.131   3.418  0.4155 -0.1624 -0.1476
   20DOPC  H11R 2690   2.923   2.032   3.450 -0.6053 -1.5022 -2.7030
   20DOPC  H11S 2691   2.815   2.112   3.333 -1.1898  0.5458  0.9579
   20DOPC  C212 2692   2.810   2.185   3.541  0.0900  0.2703  0.7212
   20DOPC  H12R 2693   2.882   2.232   3.612  1.1301  1.9116 -1.2832
   20DOPC  H12S 2694   2.755   2.101   3.588  1.0993 -1.0175 -0.3285
   20DOPC  C213 2695   2.709   2.295   3.497  0.3077 -0.4146  0.1448
   20DOPC  H13R 2696   2.639   2.247   3.425 -0.8522  3.4304 -1.5726
   20DOPC  H13S 2697   2.752   2.378   3.438 -1.7036  0.7326  0.1951
   20DOPC  C214 2698   2.627   2.356   3.613 -0.3735 -0.1497  0.0137
   20DOPC  H14R 2699   2.607   2.277   3.689 -1.1463 -1.0912 -1.1286
   20DOPC  H14S 2700   2.524   2.376   3.578  0.2340  0.1832 -1.6821
   20DOPC  C215 2701   2.694   2.483   3.668 -0.6540 -0.0231 -0.2017
   20DOPC  H15R 2702   2.803   2.463   3.672 -0.6741  0.0713  3.3679
   20DOPC  H15S 2703   2.649   2.500   3.768 -0.0834  1.6277 -0.1980
   20DOPC  C216 2704   2.662   2.602   3.577  0.0981 -0.3508 -0.8601
   20DOPC  H16R 2705   2.554   2.624   3.565  0.4273  1.7600 -0.3079
   20DOPC  H16S 2706   2.704   2.585   3.475  1.0624 -0.6096 -0.4309
   20DOPC  C217 2707   2.705   2.738   3.630 -0.2465 -0.2362  0.0613
   20DOPC  H17R 2708   2.683   2.822   3.561 -1.7110  1.1006  2.0579
   20DOPC  H17S 2709   2.814   2.752   3.646 -0.8106  0.8222  3.8366
   20DOPC  C218 2710   2.656   2.786   3.772  0.1259 -0.2826  0.3892
   20DOPC  H18R 2711   2.640   2.702   3.844 -0.7130  1.2742  2.1128
   20DOPC  H18S 2712   2.552   2.819   3.753  0.8110  2.1009  0.4350
   20DOPC  H18T 2713   2.725   2.856   3.824  0.7504 -1.9370  1.9103
   20DOPC   C33 2714   2.590   2.924   3.048 -1.2431 -0.2758 -0.6494
   20DOPC   H3X 2715   2.507   2.972   3.103 -0.3018  1.7543 -0.9112
   20DOPC   H3Y 2716   2.639   3.002   2.985 -0.1803  0.5257  1.0951
   20DOPC   C34 2717   2.699   2.873   3.144  0.0346 -0.5165 -0.0233
   20DOPC   H4X 2718   2.777   2.813   3.094  0.4784  0.7705 -0.9294
   20DOPC   H4Y 2719   2.648   2.820   3.228 -2.5044  0.3429 -0.9346
   20DOPC   C35 2720   2.777   2.982   3.220 -0.1332 -0.5398 -0.3770
   20DOPC   H5X 2721   2.855   3.036   3.162  1.7862  1.4313  3.5942
   20DOPC   H5Y 2722   2.838   2.942   3.305 -1.9843 -1.4428  0.5858
   20DOPC   C36 2723   2.691   3.089   3.288  0.1215  0.2454 -0.4989
   20DOPC   H6X 2724   2.624   3.136   3.213 -0.4371 -0.8064 -0.6699
   20DOPC   H6Y 2725   2.628   3.043   3.367 -0.6530  2.7108  0.4132
   20DOPC   C37 2726   2.773   3.200   3.352 -0.0631  0.4295  0.1924
   20DOPC   H7X 2727   2.842   3.249   3.281  1.0156  0.1803  1.0499
   20DOPC   H7Y 2728   2.699   3.271   3.394 -2.4360  0.0688 -3.0049
   20DOPC   C38 2729   2.862   3.150   3.469 -0.6066  1.0537  0.5665
   20DOPC   H8X 2730   2.927   3.234   3.500  2.3240 -1.2816  1.2434
   20DOPC   H8Y 2731   2.934   3.070   3.439 -2.3075  0.1125 -1.2623
   20DOPC   C39 2732   2.785   3.115   3.601  0.3605  0.2554  0.4495
   20DOPC   H9X 2733   2.676   3.104   3.595  0.6660 -3.1664 -2.8839
   20DOPC  C310 2734   2.845   3.100   3.725  0.6968  0.0620  0.1349
   20DOPC  H10X 2735   2.783   3.093   3.815 -1.4309 -1.7101 -1.3696
   20DOPC  C311 2736   2.992   3.119   3.746 -0.1260  0.1876  0.0563
   20DOPC  H11X 2737   3.050   3.143   3.654 -0.6051 -0.8293 -0.5285
   20DOPC  H11Y 2738   3.050   3.043   3.801  1.3978 -0.5639 -2.4380
   20DOPC  C312 2739   3.019   3.246   3.832  0.1022 -0.1599  0.0796
   20DOPC  H12X 2740   2.952   3.249   3.921 -0.8169  0.1634 -0.6160
   20DOPC  H12Y 2741   3.005   3.337   3.769  0.3403 -0.8463 -0.9913
   20DOPC  C313 2742   3.172   3.243   3.877 -0.5268 -0.9041  0.0608
   20DOPC  H13X 2743   3.211   3.165   3.945 -0.2735 -0.4517  0.4331
   20DOPC  H13Y 2744   3.239   3.242   3.788  1.6914  3.1289  1.4565
   20DOPC  C314 2745   3.212   3.383   3.948  1.0536 -0.0357 -0.5904
   20DOPC  H14X 2746   3.289   3.436   3.888  0.1111  0.4304 -1.4216
   20DOPC  H14Y 2747   3.119   3.444   3.941  0.1475 -1.0982  1.4437
   20DOPC  C315 2748   3.236   3.348   4.098 -0.6525  0.9742  1.2683
   20DOPC  H15X 2749   3.327   3.284   4.098 -0.0148  1.7441 -1.0753
   20DOPC  H15Y 2750   3.150   3.296   4.145  0.2721 -0.1755  1.7356
   20DOPC  C316 2751   3.261   3.464   4.191 -0.6708  0.3890  0.4763
   20DOPC  H16X 2752   3.329   3.534   4.137 -0.4806 -0.5653 -0.5658
   20DOPC  H16Y 2753   3.159   3.504   4.211 -0.9716 -0.4493  0.6797
   20DOPC  C317 2754   3.341   3.435   4.321 -0.2265  0.4454  0.1318
   20DOPC  H17X 2755   3.438   3.398   4.281 -1.6243 -0.6733 -2.4377
   20DOPC  H17Y 2756   3.361   3.528   4.378  1.3154 -0.1232  0.5602
   20DOPC  C318 2757   3.277   3.329   4.408  0.7613  1.0176 -1.0770
   20DOPC  H18X 2758   3.295   3.226   4.369 -2.3898 -0.6772  1.4640
   20DOPC  H18Y 2759   3.329   3.326   4.506  0.8397  2.2690 -1.0689
   20DOPC  H18Z 2760   3.167   3.344   4.415  0.6646 -0.2587  1.1807
   21DOPC     N 2761   4.588   1.122   5.991 -0.4188  0.0090 -0.4154
   21DOPC   C12 2762   4.690   1.209   5.929 -0.0394  0.2867  0.0812
   21DOPC  H12A 2763   4.744   1.162   5.848 -0.0825 -0.7556  0.6390
   21DOPC  H12B 2764   4.768   1.231   6.001 -0.0646 -0.6434  0.4120
   21DOPC   C13 2765   4.467   1.097   5.905 -0.3954 -1.0173  0.2324
   21DOPC  H13A 2766   4.488   1.043   5.814 -0.2912  1.4915 -1.3357
   21DOPC  H13B 2767   4.383   1.056   5.959 -2.1292  0.6002 -1.1139
   21DOPC  H13C 2768   4.430   1.193   5.872 -0.2536 -1.5006 -1.4319
   21DOPC   C14 2769   4.534   1.182   6.123 -0.3561  0.3784  0.2999
   21DOPC  H14A 2770   4.618   1.201   6.187  0.1483  2.1614 -0.8282
   21DOPC  H14B 2771   4.481   1.276   6.110  1.5401  1.3771 -0.6378
   21DOPC  H14C 2772   4.472   1.113   6.178 -0.5052  0.5496  0.3497
   21DOPC   C15 2773   4.651   0.999   6.033  0.3234  0.3851 -0.2020
   21DOPC  H15A 2774   4.736   1.016   6.098 -0.4027 -1.2990  1.2872
   21DOPC  H15B 2775   4.673   0.939   5.946  0.2611 -1.6028  1.0893
   21DOPC  H15C 2776   4.579   0.940   6.088  0.6209  1.2829  1.2099
   21DOPC   C11 2777   4.632   1.336   5.858 -0.5789  0.2180  0.6065
   21DOPC  H11A 2778   4.714   1.395   5.813 -0.0759 -0.4958  0.5685
   21DOPC  H11B 2779   4.580   1.301   5.767 -0.2110 -0.0704  0.5059
   21DOPC     P 2780   4.424   1.493   5.877 -0.0780  0.0731  0.2410
   21DOPC   O13 2781   4.345   1.568   5.974 -0.2848  0.1123 -1.0156
   21DOPC   O14 2782   4.357   1.389   5.801  0.1303  0.3331  0.1959
   21DOPC   O12 2783   4.550   1.426   5.938 -0.2142  0.1096  0.3179
   21DOPC   O11 2784   4.487   1.594   5.779  0.0065  0.4959  0.6432
   21DOPC    C1 2785   4.402   1.649   5.676 -0.1188  0.0294 -0.3068
   21DOPC    HA 2786   4.444   1.746   5.642  3.3011 -1.1972 -0.0652
   21DOPC    HB 2787   4.299   1.675   5.707  0.1546  0.3538  0.3548
   21DOPC    C2 2788   4.400   1.561   5.548 -0.1758 -0.2526  0.0209
   21DOPC    HS 2789   4.363   1.459   5.572  1.8420 -1.3639 -1.3285
   21DOPC   O21 2790   4.529   1.558   5.488 -0.3132 -0.4950 -0.0828
   21DOPC   C21 2791   4.556   1.450   5.424 -0.2610  0.8913 -0.6958
   21DOPC   O22 2792   4.484   1.353   5.412  0.4688 -0.3357  0.5863
   21DOPC   C22 2793   4.694   1.454   5.367 -0.4025  0.3494 -0.5541
   21DOPC   H2R 2794   4.765   1.388   5.422 -1.1834 -0.0870 -0.0577
   21DOPC   H2S 2795   4.732   1.558   5.380 -2.2935  0.7811  2.4328
   21DOPC    C3 2796   4.298   1.625   5.445  0.5363  0.0100 -0.3803
   21DOPC    HX 2797   4.343   1.724   5.421 -1.7008  0.4279 -3.4359
   21DOPC    HY 2798   4.206   1.630   5.508  1.6244  0.7963  1.2219
   21DOPC   O31 2799   4.276   1.548   5.333  0.1462 -0.4691 -0.2764
   21DOPC   C31 2800   4.159   1.539   5.278 -0.6456  0.2462  0.5000
   21DOPC   O32 2801   4.055   1.596   5.313 -0.5909  0.2316 -0.1562
   21DOPC   C32 2802   4.179   1.452   5.153 -0.1314  0.4461  0.0875
   21DOPC   H2X 2803   4.286   1.464   5.124  0.2370  3.4767  2.2225
   21DOPC   H2Y 2804   4.164   1.346   5.180  0.7669 -0.8480 -3.8553
   21DOPC   C23 2805   4.699   1.414   5.217 -0.1464  0.0929 -1.1822
   21DOPC   H3R 2806   4.661   1.310   5.214  0.6469 -0.2367 -0.3654
   21DOPC   H3S 2807   4.804   1.407   5.183  0.6741  1.4726  0.8628
   21DOPC   C24 2808   4.618   1.491   5.118 -0.1701 -0.6952 -0.5056
   21DOPC   H4R 2809   4.659   1.594   5.108  1.2799 -1.2309 -0.2812
   21DOPC   H4S 2810   4.524   1.493   5.177 -0.2689 -1.2932 -0.6344
   21DOPC   C25 2811   4.595   1.423   4.983 -0.1925 -0.5764  0.0350
   21DOPC   H5R 2812   4.697   1.387   4.955  0.1427 -0.3027  0.8558
   21DOPC   H5S 2813   4.561   1.497   4.908  0.8593 -0.1357 -0.0281
   21DOPC   C26 2814   4.502   1.297   4.988  0.4441 -0.6743 -0.0276
   21DOPC   H6R 2815   4.407   1.343   5.022  0.7185  0.7623 -1.0877
   21DOPC   H6S 2816   4.535   1.218   5.059 -2.2932 -0.0413  2.1157
   21DOPC   C27 2817   4.491   1.233   4.841  0.3079 -0.0140 -0.7061
   21DOPC   H7R 2818   4.434   1.303   4.776  1.4834  0.0207 -1.7506
   21DOPC   H7S 2819   4.426   1.144   4.857 -0.0089  0.4289  0.5479
   21DOPC   C28 2820   4.634   1.194   4.774 -0.2083 -0.0416  0.5034
   21DOPC   H8R 2821   4.682   1.138   4.858 -0.0868 -1.5622 -0.5425
   21DOPC   H8S 2822   4.694   1.285   4.751  0.0075 -0.6864 -1.6763
   21DOPC   C29 2823   4.608   1.102   4.663 -0.2995  0.7242  0.1897
   21DOPC   H9R 2824   4.521   1.038   4.685 -0.5446  0.9646 -0.0667
   21DOPC  C210 2825   4.684   1.085   4.547 -0.2303 -0.2687 -0.5101
   21DOPC  H10R 2826   4.649   1.004   4.482  2.3799 -2.2668  0.3676
   21DOPC  C211 2827   4.807   1.160   4.506 -0.0508 -0.0740 -0.2061
   21DOPC  H11R 2828   4.874   1.084   4.460 -1.7144  0.1364 -3.2629
   21DOPC  H11S 2829   4.853   1.212   4.592 -2.5452  2.0530 -0.0450
   21DOPC  C212 2830   4.773   1.264   4.396 -0.1859  0.4542 -0.8288
   21DOPC  H12R 2831   4.671   1.299   4.423  0.0140  0.8129 -0.5291
   21DOPC  H12S 2832   4.776   1.216   4.296  0.5360 -1.5783  0.1295
   21DOPC  C213 2833   4.867   1.392   4.396 -0.6626  0.4180 -1.7254
   21DOPC  H13R 2834   4.945   1.385   4.318  0.6358  1.0773 -0.5244
   21DOPC  H13S 2835   4.908   1.391   4.499 -4.9234  0.2259  0.2137
   21DOPC  C214 2836   4.790   1.518   4.368 -0.0367  0.3221  0.1138
   21DOPC  H14R 2837   4.871   1.595   4.366  0.6633 -0.3094  1.7728
   21DOPC  H14S 2838   4.716   1.548   4.446  0.8197  1.7123  0.4420
   21DOPC  C215 2839   4.717   1.526   4.232  0.0456  1.2073  0.2706
   21DOPC  H15R 2840   4.615   1.483   4.238  0.4785 -0.2681 -1.8526
   21DOPC  H15S 2841   4.760   1.456   4.158  0.1195  2.1403 -0.5905
   21DOPC  C216 2842   4.706   1.669   4.173  0.1278  0.0438  0.2486
   21DOPC  H16R 2843   4.791   1.704   4.112 -0.1545  0.4913  0.1106
   21DOPC  H16S 2844   4.695   1.744   4.254  0.5009  0.6837 -0.2957
   21DOPC  C217 2845   4.587   1.677   4.076  0.8371 -0.9136 -0.0299
   21DOPC  H17R 2846   4.494   1.641   4.125 -0.6019 -0.0089 -1.9908
   21DOPC  H17S 2847   4.591   1.624   3.979 -0.8060 -1.2346  0.0403
   21DOPC  C218 2848   4.548   1.816   4.025 -0.7354  0.2215 -0.1203
   21DOPC  H18R 2849   4.523   1.890   4.103 -0.0107  1.4747 -1.0498
   21DOPC  H18S 2850   4.454   1.794   3.969 -1.0692 -2.6311  1.3512
   21DOPC  H18T 2851   4.620   1.854   3.950 -2.1978  1.3604 -1.0051
   21DOPC   C33 2852   4.094   1.488   5.027  0.3088  0.2813  0.0980
   21DOPC   H3X 2853   4.089   1.599   5.022  1.6339  0.3655  0.2452
   21DOPC   H3Y 2854   3.992   1.445   5.041  1.0007 -1.0952  1.2557
   21DOPC   C34 2855   4.148   1.426   4.892 -0.6421  0.0151  0.0839
   21DOPC   H4X 2856   4.242   1.474   4.856  0.5926 -2.4439 -0.2341
   21DOPC   H4Y 2857   4.075   1.458   4.815 -1.6495 -3.6786 -0.6927
   21DOPC   C35 2858   4.151   1.274   4.889 -0.0760 -0.3403  0.0412
   21DOPC   H5X 2859   4.058   1.239   4.938 -1.4354 -0.4404 -2.4580
   21DOPC   H5Y 2860   4.239   1.246   4.951  1.4190 -0.5512 -2.0400
   21DOPC   C36 2861   4.162   1.198   4.750  0.7204  0.4771  0.4009
   21DOPC   H6X 2862   4.252   1.247   4.710  1.3999  0.1651  1.5060
   21DOPC   H6Y 2863   4.186   1.091   4.768  0.4210  0.5179  1.1017
   21DOPC   C37 2864   4.034   1.209   4.649 -0.1107 -0.3035 -0.5450
   21DOPC   H7X 2865   3.949   1.163   4.704  1.0720  0.1401  1.7587
   21DOPC   H7Y 2866   4.006   1.316   4.647  0.1743 -0.1629  1.4182
   21DOPC   C38 2867   4.062   1.144   4.513 -0.2636  0.2612 -0.8559
   21DOPC   H8X 2868   4.048   1.034   4.515 -0.1984  0.1923 -2.6104
   21DOPC   H8Y 2869   4.171   1.161   4.499 -0.3364 -0.5058 -2.6557
   21DOPC   C39 2870   3.969   1.204   4.405 -0.5461  0.3111 -0.8604
   21DOPC   H9X 2871   3.954   1.312   4.416 -0.5958  0.0500  2.5332
   21DOPC  C310 2872   3.935   1.137   4.290 -0.5607  0.0477  0.2296
   21DOPC  H10X 2873   3.886   1.201   4.214 -1.2822  1.5748  1.9053
   21DOPC  C311 2874   3.969   0.995   4.255 -0.7894 -1.2567 -0.1725
   21DOPC  H11X 2875   4.027   0.938   4.331  0.8112  1.0825  0.4382
   21DOPC  H11Y 2876   4.027   0.998   4.161  1.4216 -1.3107  1.1363
   21DOPC  C312 2877   3.846   0.913   4.246  0.0187  0.3347 -0.0879
   21DOPC  H12X 2878   3.771   0.951   4.173 -1.2227  1.1152  1.5133
   21DOPC  H12Y 2879   3.788   0.900   4.340  1.3127 -0.9533  0.5793
   21DOPC  C313 2880   3.866   0.762   4.193 -0.2364  0.7747 -0.4876
   21DOPC  H13X 2881   3.925   0.703   4.266 -4.1685  0.0764  2.5104
   21DOPC  H13Y 2882   3.768   0.709   4.198  0.5971 -1.1561 -2.8084
   21DOPC  C314 2883   3.902   0.748   4.050 -0.1219 -0.3059 -0.6584
   21DOPC  H14X 2884   3.862   0.836   3.995  0.5921  0.9857  0.8076
   21DOPC  H14Y 2885   4.012   0.753   4.044 -0.1421  0.4880 -0.4898
   21DOPC  C315 2886   3.860   0.619   3.982 -0.1224  0.1223  1.2494
   21DOPC  H15X 2887   3.935   0.597   3.903 -0.9637 -0.0914  0.5010
   21DOPC  H15Y 2888   3.769   0.638   3.921 -0.0524  0.2317  1.1785
   21DOPC  C316 2889   3.845   0.493   4.070 -0.0066 -1.0504  1.0519
   21DOPC  H16X 2890   3.943   0.482   4.120 -0.6498 -0.7069  2.4235
   21DOPC  H16Y 2891   3.763   0.504   4.144 -0.9912  0.2766 -0.1831
   21DOPC  C317 2892   3.825   0.367   3.985 -0.2850 -0.0175  0.6662
   21DOPC  H17X 2893   3.743   0.380   3.911  1.1159 -2.3587 -1.4368
   21DOPC  H17Y 2894   3.915   0.356   3.921 -0.4767  0.7799  0.2462
   21DOPC  C318 2895   3.823   0.240   4.066 -0.3756  0.1891 -0.4091
   21DOPC  H18X 2896   3.915   0.241   4.128 -0.7874  1.5480  0.2038
   21DOPC  H18Y 2897   3.734   0.236   4.133 -0.1875 -1.3024 -0.2082
   21DOPC  H18Z 2898   3.831   0.154   3.995 -2.0677  1.1575 -1.8558
   22DOPC     N 2899   3.062   5.035   5.984 -0.0273 -0.0397  0.1034
   22DOPC   C12 2900   2.970   5.070   5.865  1.0665  0.0148 -0.1442
   22DOPC  H12A 2901   2.874   5.024   5.883  0.6435  0.8150 -0.2761
   22DOPC  H12B 2902   3.013   5.034   5.773  1.2661 -1.7826  0.6157
   22DOPC   C13 2903   3.091   4.883   5.982  0.2710  0.0241  0.6802
   22DOPC  H13A 2904   3.008   4.821   6.013  1.1779 -1.1372  0.8379
   22DOPC  H13B 2905   3.105   4.857   5.878  0.1152  3.2510 -0.2714
   22DOPC  H13C 2906   3.173   4.862   6.048  1.4402 -1.8878 -1.2428
   22DOPC   C14 2907   2.995   5.055   6.114 -0.5452  0.0390  0.5247
   22DOPC  H14A 2908   3.047   5.004   6.194  2.1438  0.3827 -0.8749
   22DOPC  H14B 2909   2.990   5.162   6.129  3.4700  0.4410  0.0352
   22DOPC  H14C 2910   2.894   5.017   6.113 -0.4068 -0.3666 -1.6837
   22DOPC   C15 2911   3.190   5.112   5.980  0.2858  0.2042 -0.4032
   22DOPC  H15A 2912   3.160   5.216   5.978 -3.8699 -0.8167  0.0494
   22DOPC  H15B 2913   3.255   5.081   5.900  0.5451 -0.6517  0.1252
   22DOPC  H15C 2914   3.245   5.087   6.070  3.1245 -1.1797 -2.3879
   22DOPC   C11 2915   2.933   5.214   5.828  0.4464  0.5402 -0.8355
   22DOPC  H11A 2916   3.017   5.270   5.782 -2.1083  1.5156 -4.8271
   22DOPC  H11B 2917   2.858   5.216   5.747  0.7651  2.3720 -1.1339
   22DOPC     P 2918   2.879   5.446   5.938  0.6404 -0.3173 -0.1268
   22DOPC   O13 2919   3.020   5.485   5.916  0.0214 -0.1636  0.2631
   22DOPC   O14 2920   2.817   5.491   6.065 -0.1093  0.2797  0.2481
   22DOPC   O12 2921   2.872   5.287   5.941  0.3601  0.7016  0.5295
   22DOPC   O11 2922   2.782   5.492   5.820 -0.2629  0.9603 -0.0123
   22DOPC    C1 2923   2.650   5.444   5.806 -0.1887  0.1179  0.0612
   22DOPC    HA 2924   2.583   5.471   5.891 -0.0736 -0.8476  0.4730
   22DOPC    HB 2925   2.637   5.333   5.807  2.7295 -0.3140 -0.9788
   22DOPC    C2 2926   2.576   5.511   5.686  1.2097 -0.2341  0.1912
   22DOPC    HS 2927   2.480   5.461   5.659  1.8276 -0.6601 -1.3362
   22DOPC   O21 2928   2.662   5.531   5.570 -0.4995 -0.4831 -0.0696
   22DOPC   C21 2929   2.706   5.420   5.526  0.0701 -0.5408 -0.4030
   22DOPC   O22 2930   2.675   5.305   5.556  0.3891 -0.4514 -0.3785
   22DOPC   C22 2931   2.811   5.464   5.418  0.9295 -0.5346 -0.1964
   22DOPC   H2R 2932   2.888   5.517   5.479  0.1074  1.1833 -0.5787
   22DOPC   H2S 2933   2.757   5.532   5.349  0.0616  2.8741  3.4768
   22DOPC    C3 2934   2.526   5.655   5.739  0.1134 -0.0221  0.2378
   22DOPC    HX 2935   2.607   5.704   5.798 -0.9362  0.3065  1.4550
   22DOPC    HY 2936   2.447   5.652   5.817  1.7397  2.3046  2.1166
   22DOPC   O31 2937   2.488   5.752   5.634 -0.1305  0.3057 -0.3683
   22DOPC   C31 2938   2.376   5.714   5.561 -0.1222  0.6028  0.3884
   22DOPC   O32 2939   2.302   5.622   5.584 -0.4950  0.4971  0.3978
   22DOPC   C32 2940   2.373   5.794   5.434 -0.3231 -0.1464 -0.5810
   22DOPC   H2X 2941   2.440   5.882   5.445  1.6294 -1.6917  0.5394
   22DOPC   H2Y 2942   2.410   5.722   5.358 -2.0470 -1.7499  0.0209
   22DOPC   C23 2943   2.875   5.353   5.332 -0.2904 -0.0989 -0.1048
   22DOPC   H3R 2944   2.927   5.274   5.391  1.4882  2.7544  2.4425
   22DOPC   H3S 2945   2.964   5.385   5.273  0.2928  0.1966  0.9087
   22DOPC   C24 2946   2.781   5.290   5.227  0.4223  0.3541  0.1297
   22DOPC   H4R 2947   2.727   5.370   5.171 -1.1958 -0.1812  0.8601
   22DOPC   H4S 2948   2.707   5.225   5.277 -0.7347  0.7532 -1.0069
   22DOPC   C25 2949   2.854   5.194   5.141 -0.6037 -0.2535  0.3093
   22DOPC   H5R 2950   2.885   5.108   5.204  3.3155 -0.3459 -1.4264
   22DOPC   H5S 2951   2.944   5.231   5.087 -1.3765 -0.8048 -1.4359
   22DOPC   C26 2952   2.770   5.127   5.038  0.2040 -0.9122 -0.1094
   22DOPC   H6R 2953   2.674   5.087   5.076  0.6322  0.6811  3.0527
   22DOPC   H6S 2954   2.826   5.047   4.985  0.4077  0.6271 -2.3806
   22DOPC   C27 2955   2.735   5.230   4.923  0.2775  1.1735  0.0913
   22DOPC   H7R 2956   2.826   5.264   4.868  1.2751 -1.1193  0.1831
   22DOPC   H7S 2957   2.693   5.311   4.986  0.7336  1.4699  0.0227
   22DOPC   C28 2958   2.627   5.179   4.827  0.0494  0.0808  0.8552
   22DOPC   H8R 2959   2.548   5.132   4.890 -1.4806  2.5401  0.9223
   22DOPC   H8S 2960   2.685   5.107   4.766 -1.9928 -1.0910  0.2346
   22DOPC   C29 2961   2.569   5.293   4.746 -0.7045 -0.0000  0.5565
   22DOPC   H9R 2962   2.485   5.341   4.798 -3.5645 -1.3658 -2.3830
   22DOPC  C210 2963   2.617   5.346   4.633  0.2798 -0.2694  0.2056
   22DOPC  H10R 2964   2.566   5.426   4.578 -0.6617  1.1204  2.9071
   22DOPC  C211 2965   2.747   5.308   4.570  0.0693  0.3174 -0.2350
   22DOPC  H11R 2966   2.831   5.257   4.622  0.5282 -0.5721 -1.7499
   22DOPC  H11S 2967   2.795   5.398   4.526  0.4399 -0.1903 -0.8987
   22DOPC  C212 2968   2.730   5.227   4.443  0.3265 -0.6711 -0.2042
   22DOPC  H12R 2969   2.665   5.139   4.462 -1.5228  0.1358 -2.2978
   22DOPC  H12S 2970   2.830   5.185   4.420  0.7390  0.7902 -1.2113
   22DOPC  C213 2971   2.687   5.300   4.318 -0.7130  0.4680  0.9791
   22DOPC  H13R 2972   2.707   5.237   4.229 -0.5411  0.3597  1.0954
   22DOPC  H13S 2973   2.741   5.397   4.310  1.2767 -0.5135  1.8168
   22DOPC  C214 2974   2.533   5.322   4.310  0.9276  0.0980  0.2680
   22DOPC  H14R 2975   2.527   5.427   4.347 -0.6342 -0.6673  2.3692
   22DOPC  H14S 2976   2.481   5.259   4.384 -0.6730  0.8748 -0.1417
   22DOPC  C215 2977   2.468   5.322   4.170 -0.2846  0.1365  0.1112
   22DOPC  H15R 2978   2.357   5.315   4.173 -0.2191 -1.6188 -0.6500
   22DOPC  H15S 2979   2.493   5.229   4.116 -1.6138 -1.5846  2.2854
   22DOPC  C216 2980   2.521   5.438   4.077 -0.1961  0.1313 -0.3651
   22DOPC  H16R 2981   2.632   5.441   4.072 -0.2329  2.3907 -1.2933
   22DOPC  H16S 2982   2.504   5.541   4.117 -1.0915 -0.0644 -0.2317
   22DOPC  C217 2983   2.457   5.432   3.942  0.5261 -0.1109  0.2147
   22DOPC  H17R 2984   2.348   5.415   3.956  0.2795  1.6476  0.5433
   22DOPC  H17S 2985   2.485   5.334   3.897 -3.2541 -0.5235 -1.6971
   22DOPC  C218 2986   2.497   5.541   3.841  0.1195 -0.3471  0.0509
   22DOPC  H18R 2987   2.444   5.534   3.743 -1.3397  0.9094  0.7011
   22DOPC  H18S 2988   2.605   5.542   3.819 -0.1496  1.3018 -1.4669
   22DOPC  H18T 2989   2.473   5.644   3.875 -0.1478 -0.0240 -1.0833
   22DOPC   C33 2990   2.230   5.834   5.405 -0.6531  0.1748  0.4626
   22DOPC   H3X 2991   2.194   5.914   5.473 -0.6494  1.2633 -0.7726
   22DOPC   H3Y 2992   2.165   5.746   5.428 -1.6907  1.2432  1.7489
   22DOPC   C34 2993   2.220   5.888   5.261 -0.2913 -0.4143  0.8248
   22DOPC   H4X 2994   2.223   5.809   5.183  0.6505  1.6098 -1.3363
   22DOPC   H4Y 2995   2.315   5.944   5.246  0.1006 -1.1546  0.4523
   22DOPC   C35 2996   2.098   5.971   5.236  0.3677  0.1068  0.3872
   22DOPC   H5X 2997   2.108   6.071   5.284 -0.6180 -0.0442  0.9309
   22DOPC   H5Y 2998   2.004   5.934   5.282 -0.1852  3.5907  2.3488
   22DOPC   C36 2999   2.075   5.990   5.090 -0.6035 -0.4604  0.3581
   22DOPC   H6X 3000   2.165   6.006   5.027 -0.9892 -2.4848 -0.7789
   22DOPC   H6Y 3001   2.059   5.885   5.060 -2.4393 -0.0782 -0.1734
   22DOPC   C37 3002   1.945   6.070   5.056 -0.1934 -0.0691  0.2566
   22DOPC   H7X 3003   1.857   6.004   5.047  0.1098 -0.3748 -0.4777
   22DOPC   H7Y 3004   1.921   6.132   5.146  0.7379  0.8604 -0.1153
   22DOPC   C38 3005   1.970   6.154   4.932 -0.1398 -0.6609 -0.5339
   22DOPC   H8X 3006   1.880   6.218   4.921  1.7384  2.0315 -1.1307
   22DOPC   H8Y 3007   1.988   6.102   4.836  0.9299 -0.0312 -0.6895
   22DOPC   C39 3008   2.082   6.257   4.956 -0.3914 -0.0259  0.6799
   22DOPC   H9X 3009   2.127   6.257   5.056 -1.3986  2.8835  1.2354
   22DOPC  C310 3010   2.139   6.333   4.858 -0.0510  0.1880 -1.1422
   22DOPC  H10X 3011   2.219   6.400   4.893 -0.9511 -0.3277  2.2457
   22DOPC  C311 3012   2.113   6.338   4.708  0.5778  0.5716 -0.6159
   22DOPC  H11X 3013   2.087   6.237   4.671  2.6084 -0.2597  0.0853
   22DOPC  H11Y 3014   2.209   6.361   4.657 -0.2141 -1.2177 -3.1188
   22DOPC  C312 3015   2.007   6.442   4.661  0.0397  0.3264  0.5156
   22DOPC  H12X 3016   2.022   6.543   4.703  0.4138  0.5282 -0.0957
   22DOPC  H12Y 3017   1.908   6.403   4.693  0.5365  1.9140  4.5475
   22DOPC  C313 3018   2.016   6.457   4.509 -0.7825  0.2884 -0.1163
   22DOPC  H13X 3019   2.111   6.512   4.492 -0.7931 -0.3741 -2.7547
   22DOPC  H13Y 3020   2.016   6.365   4.447  3.1573 -0.5337  0.8243
   22DOPC  C314 3021   1.900   6.549   4.446  0.2595 -0.0458  0.2868
   22DOPC  H14X 3022   1.942   6.569   4.345 -2.7627  1.2500 -0.8400
   22DOPC  H14Y 3023   1.799   6.502   4.440 -0.6017  1.6101  1.0329
   22DOPC  C315 3024   1.880   6.688   4.514 -0.1301 -0.7630 -0.4191
   22DOPC  H15X 3025   1.976   6.743   4.508  0.7908 -2.3608 -0.6888
   22DOPC  H15Y 3026   1.854   6.667   4.620 -1.1773 -0.5827 -0.6243
   22DOPC  C316 3027   1.762   6.762   4.446  0.1492 -0.1373  0.3516
   22DOPC  H16X 3028   1.795   6.789   4.343  0.1823  1.0633  0.6642
   22DOPC  H16Y 3029   1.680   6.687   4.443 -0.6616  0.6399  2.1066
   22DOPC  C317 3030   1.711   6.890   4.515  0.3885 -0.3234 -0.8029
   22DOPC  H17X 3031   1.621   6.925   4.461 -0.7891 -2.1636 -0.1150
   22DOPC  H17Y 3032   1.686   6.869   4.621 -1.1225  2.1016 -0.6242
   22DOPC  C318 3033   1.807   7.001   4.499  0.4439 -0.1952  0.3360
   22DOPC  H18X 3034   1.832   7.034   4.396 -1.5343  2.5169  0.6384
   22DOPC  H18Y 3035   1.764   7.097   4.535  0.5556  0.7182 -1.8105
   22DOPC  H18Z 3036   1.902   6.981   4.553  0.6061 -1.4039 -0.3537
   23DOPC     N 3037   5.712   5.951   6.336  0.0181 -0.0074  0.2806
   23DOPC   C12 3038   5.707   5.956   6.184 -0.2092  0.0909  0.5670
   23DOPC  H12A 3039   5.661   6.053   6.169 -2.0344 -0.5931  1.5337
   23DOPC  H12B 3040   5.636   5.879   6.159  0.8517 -0.6295 -0.3679
   23DOPC   C13 3041   5.810   6.053   6.388  0.4877  0.4745  0.3731
   23DOPC  H13A 3042   5.912   6.049   6.353  1.9144  0.5682  4.0913
   23DOPC  H13B 3043   5.780   6.156   6.369 -1.7886 -0.1249  0.3639
   23DOPC  H13C 3044   5.815   6.047   6.496 -2.9168  1.3069  0.6965
   23DOPC   C14 3045   5.763   5.821   6.383  0.2159 -0.0320 -0.3687
   23DOPC  H14A 3046   5.863   5.818   6.342  0.6991  1.4071  0.6030
   23DOPC  H14B 3047   5.775   5.821   6.490  2.1378  0.0281 -0.5541
   23DOPC  H14C 3048   5.696   5.741   6.355 -0.9579  0.8351 -0.1377
   23DOPC   C15 3049   5.579   5.979   6.401 -0.0503 -0.2114  1.0664
   23DOPC  H15A 3050   5.537   6.074   6.372 -1.1949 -1.2058 -0.7625
   23DOPC  H15B 3051   5.592   5.972   6.508  0.1117 -0.5381  1.0283
   23DOPC  H15C 3052   5.505   5.908   6.367  1.5013 -0.6958 -1.6193
   23DOPC   C11 3053   5.824   5.927   6.093  0.0953 -0.2834  0.4551
   23DOPC  H11A 3054   5.871   5.831   6.121  2.1319 -0.0010 -1.6377
   23DOPC  H11B 3055   5.792   5.916   5.987  0.7493  2.0917 -0.0474
   23DOPC     P 3056   5.920   6.151   6.013 -0.3530 -0.2323 -0.0746
   23DOPC   O13 3057   6.032   6.245   6.027  0.4479  0.0544  0.1209
   23DOPC   O14 3058   5.786   6.212   6.032 -0.0123  0.3671  0.1008
   23DOPC   O12 3059   5.923   6.028   6.113  0.4280  0.2241 -0.5629
   23DOPC   O11 3060   5.925   6.082   5.872 -0.3379  0.4431  0.2283
   23DOPC    C1 3061   6.046   6.026   5.822 -0.2576 -0.1922  0.7635
   23DOPC    HA 3062   6.067   5.931   5.875 -0.8451  0.1338  1.6103
   23DOPC    HB 3063   6.133   6.088   5.853  0.1062 -1.9153  3.5164
   23DOPC    C2 3064   6.052   6.013   5.674  0.2240 -0.1700 -1.1106
   23DOPC    HS 3065   6.137   5.944   5.654  1.3380  1.4458 -2.1875
   23DOPC   O21 3066   6.073   6.140   5.605  0.6426  0.7687 -0.2418
   23DOPC   C21 3067   6.196   6.176   5.593 -0.5745  0.5346  0.4674
   23DOPC   O22 3068   6.290   6.124   5.649  0.0757  0.2917  0.3347
   23DOPC   C22 3069   6.206   6.288   5.496  0.2793 -0.4504 -0.1042
   23DOPC   H2R 3070   6.305   6.334   5.516  0.9534 -1.3948 -1.1457
   23DOPC   H2S 3071   6.125   6.362   5.514 -0.8069 -1.3757 -1.0626
   23DOPC    C3 3072   5.920   5.948   5.627 -0.0096 -0.1870  0.3798
   23DOPC    HX 3073   5.844   6.029   5.620  1.9216  1.6452 -0.4401
   23DOPC    HY 3074   5.872   5.890   5.709 -2.8664 -0.0330 -1.0427
   23DOPC   O31 3075   5.937   5.875   5.496  0.0087 -0.2859  0.4664
   23DOPC   C31 3076   5.989   5.757   5.510  0.6115  1.5082 -0.0831
   23DOPC   O32 3077   6.028   5.708   5.618 -0.2750 -0.4869  0.4353
   23DOPC   C32 3078   6.000   5.677   5.375 -0.4699  0.2235  0.0292
   23DOPC   H2X 3079   6.089   5.610   5.387 -2.3364 -1.9520  3.4804
   23DOPC   H2Y 3080   5.920   5.602   5.358 -1.2644  0.6440  1.6626
   23DOPC   C23 3081   6.198   6.249   5.347  0.2469  0.2970 -0.6107
   23DOPC   H3R 3082   6.214   6.336   5.279 -1.0154  0.2021 -1.0565
   23DOPC   H3S 3083   6.096   6.213   5.323 -0.2060 -1.5343  3.2834
   23DOPC   C24 3084   6.307   6.145   5.324 -0.1249 -0.2571 -0.5300
   23DOPC   H4R 3085   6.295   6.059   5.393  1.9319  1.3003  1.9542
   23DOPC   H4S 3086   6.404   6.193   5.351 -0.5515 -0.0855  0.7929
   23DOPC   C25 3087   6.309   6.085   5.182 -0.9822  0.2097  0.8664
   23DOPC   H5R 3088   6.225   6.015   5.159  0.7746 -1.5514 -0.5763
   23DOPC   H5S 3089   6.398   6.019   5.191  0.0735  1.4564 -0.1056
   23DOPC   C26 3090   6.325   6.180   5.064  0.2780  0.4692 -0.0368
   23DOPC   H6R 3091   6.415   6.234   5.103  0.2454 -1.9477  3.9246
   23DOPC   H6S 3092   6.240   6.251   5.055  0.5331  1.1415  2.2060
   23DOPC   C27 3093   6.354   6.113   4.926  0.4595  0.2713 -0.0560
   23DOPC   H7R 3094   6.255   6.094   4.878  0.2996  0.5763  0.1542
   23DOPC   H7S 3095   6.407   6.020   4.955 -0.1392  0.0503  0.3528
   23DOPC   C28 3096   6.446   6.210   4.841  0.3405 -0.5009  0.4744
   23DOPC   H8R 3097   6.540   6.214   4.900 -0.2095  1.1418  1.3009
   23DOPC   H8S 3098   6.406   6.312   4.829 -0.1599 -0.8452 -0.9977
   23DOPC   C29 3099   6.463   6.137   4.711  0.5638  0.1093 -0.2932
   23DOPC   H9R 3100   6.468   6.028   4.723 -0.1639  0.0844 -0.1483
   23DOPC  C210 3101   6.443   6.182   4.595  0.2109  0.0496 -0.4622
   23DOPC  H10R 3102   6.457   6.118   4.507 -1.3623 -0.6894 -0.2145
   23DOPC  C211 3103   6.418   6.322   4.553 -0.5103  0.1883 -0.6233
   23DOPC  H11R 3104   6.467   6.346   4.456 -0.0903  0.1595 -0.4188
   23DOPC  H11S 3105   6.450   6.398   4.628 -3.7651  0.0447  1.0993
   23DOPC  C212 3106   6.272   6.339   4.520  0.7586  0.0777 -0.9361
   23DOPC  H12R 3107   6.262   6.435   4.465 -2.0363  0.6987  0.4796
   23DOPC  H12S 3108   6.215   6.346   4.615  0.9702  2.8497 -0.9499
   23DOPC  C213 3109   6.207   6.222   4.445 -0.1303  0.5037  0.1425
   23DOPC  H13R 3110   6.179   6.136   4.510  0.8226  1.0874  1.3577
   23DOPC  H13S 3111   6.275   6.187   4.365 -0.9856 -1.7350  0.3231
   23DOPC  C214 3112   6.080   6.280   4.374 -0.7191  0.1900  0.0064
   23DOPC  H14R 3113   6.101   6.380   4.333 -1.2044  0.4754  0.4360
   23DOPC  H14S 3114   5.995   6.282   4.447 -0.8135  3.0065 -0.0928
   23DOPC  C215 3115   6.034   6.193   4.257 -0.0685  0.2261 -0.0513
   23DOPC  H15R 3116   5.944   6.242   4.215 -0.7263 -0.2279  0.8087
   23DOPC  H15S 3117   5.994   6.099   4.301  0.8950 -0.5219 -0.7281
   23DOPC  C216 3118   6.130   6.170   4.146  0.4650  0.4022  0.1791
   23DOPC  H16R 3119   6.206   6.095   4.179 -1.2180 -0.4316  2.4311
   23DOPC  H16S 3120   6.183   6.263   4.119 -1.4771  0.8179 -2.6285
   23DOPC  C217 3121   6.073   6.103   4.015 -0.2309  0.1117 -0.4291
   23DOPC  H17R 3122   6.151   6.115   3.937  0.1816 -0.9607 -0.2028
   23DOPC  H17S 3123   5.980   6.158   3.986 -0.3207 -0.5184 -1.3996
   23DOPC  C218 3124   6.035   5.958   4.019  1.3056  0.4311 -0.2777
   23DOPC  H18R 3125   5.943   5.943   4.080 -0.6064 -2.1723 -3.4656
   23DOPC  H18S 3126   6.117   5.886   4.043 -0.8048 -1.8053  0.6795
   23DOPC  H18T 3127   5.985   5.936   3.922 -2.7212  2.0039  1.2158
   23DOPC   C33 3128   6.042   5.759   5.254 -0.2862  0.4993 -0.6544
   23DOPC   H3X 3129   6.139   5.807   5.278 -1.3057  1.0152  3.0936
   23DOPC   H3Y 3130   5.961   5.832   5.233  1.6485  2.6674 -1.0227
   23DOPC   C34 3131   6.059   5.679   5.130 -0.4533 -0.0979 -0.1092
   23DOPC   H4X 3132   5.970   5.628   5.088 -0.9805  0.3108  0.4895
   23DOPC   H4Y 3133   6.141   5.605   5.143  0.2467  0.3504 -1.7637
   23DOPC   C35 3134   6.132   5.769   5.020  0.1350  0.6681 -0.1260
   23DOPC   H5X 3135   6.233   5.794   5.057 -0.6099  1.3341  1.5642
   23DOPC   H5Y 3136   6.090   5.870   4.999  1.0910  1.2518  0.6819
   23DOPC   C36 3137   6.131   5.683   4.891  0.4859 -0.0009  0.0440
   23DOPC   H6X 3138   6.200   5.597   4.905 -1.5643 -1.7246  0.0871
   23DOPC   H6Y 3139   6.030   5.650   4.857  0.0644  0.6395  0.6641
   23DOPC   C37 3140   6.182   5.776   4.787  0.5898  0.2238  0.2646
   23DOPC   H7X 3141   6.108   5.851   4.754 -0.1979 -0.9939 -0.8596
   23DOPC   H7Y 3142   6.271   5.835   4.819 -0.4607  2.0810 -0.0898
   23DOPC   C38 3143   6.229   5.704   4.657 -0.0677  0.2965  0.4418
   23DOPC   H8X 3144   6.146   5.634   4.633  1.2678 -1.0743 -0.3116
   23DOPC   H8Y 3145   6.326   5.656   4.680 -0.7491 -1.7024 -0.6990
   23DOPC   C39 3146   6.256   5.791   4.544  0.6247 -0.1063 -0.4100
   23DOPC   H9X 3147   6.363   5.813   4.536  1.1371 -1.7567  1.1088
   23DOPC  C310 3148   6.167   5.827   4.445  0.1496 -0.1524  0.6206
   23DOPC  H10X 3149   6.193   5.885   4.355 -0.7189 -0.7782 -0.0477
   23DOPC  C311 3150   6.021   5.798   4.453  0.5595 -0.3791  0.4302
   23DOPC  H11X 3151   5.960   5.890   4.442 -0.7150 -1.3884 -1.6211
   23DOPC  H11Y 3152   5.998   5.756   4.553  1.6949 -1.2333  0.3589
   23DOPC  C312 3153   5.969   5.695   4.350  0.0174 -0.0316 -0.1598
   23DOPC  H12X 3154   6.030   5.602   4.353 -1.0641 -0.7295  1.7660
   23DOPC  H12Y 3155   5.972   5.739   4.248  1.7414  0.1582 -0.0496
   23DOPC  C313 3156   5.830   5.647   4.391  0.7616 -0.8073 -0.0610
   23DOPC  H13X 3157   5.814   5.619   4.497  0.3986 -1.6844 -0.3418
   23DOPC  H13Y 3158   5.762   5.735   4.384  0.5278 -0.9399  0.4737
   23DOPC  C314 3159   5.781   5.543   4.299 -0.4061 -0.0482 -0.0471
   23DOPC  H14X 3160   5.798   5.573   4.194  0.2549  1.3538  0.4385
   23DOPC  H14Y 3161   5.834   5.447   4.319 -1.1577 -0.7843 -1.4856
   23DOPC  C315 3162   5.623   5.512   4.305  0.3782 -0.4946  1.0832
   23DOPC  H15X 3163   5.573   5.603   4.344 -0.7967 -0.8419  0.4086
   23DOPC  H15Y 3164   5.630   5.426   4.375  4.2563 -2.2649 -1.1380
   23DOPC  C316 3165   5.565   5.485   4.165 -0.4538 -0.2653 -0.5046
   23DOPC  H16X 3166   5.560   5.582   4.111 -2.0955 -0.1504 -0.1951
   23DOPC  H16Y 3167   5.636   5.418   4.112 -0.0087 -1.0937  1.0668
   23DOPC  C317 3168   5.426   5.428   4.168  0.7808  0.5915 -0.7628
   23DOPC  H17X 3169   5.443   5.330   4.216 -1.3330 -0.7571 -2.5629
   23DOPC  H17Y 3170   5.353   5.486   4.229  1.2114  1.6282 -1.2125
   23DOPC  C318 3171   5.367   5.399   4.028  0.0111 -0.6745 -0.4794
   23DOPC  H18X 3172   5.267   5.352   4.041 -1.0870  1.9659  1.7030
   23DOPC  H18Y 3173   5.343   5.493   3.974 -1.7497 -0.5383  0.4577
   23DOPC  H18Z 3174   5.439   5.346   3.963  2.8491  4.2244 -1.8549
   24DOPC     N 3175   0.825   4.943   6.254 -0.4713 -0.1893 -0.2698
   24DOPC   C12 3176   0.715   4.905   6.156  0.1825 -0.8512  0.4044
   24DOPC  H12A 3177   0.744   4.934   6.056 -1.0638 -2.3081 -0.4057
   24DOPC  H12B 3178   0.624   4.963   6.165  1.2429  0.7901  1.1965
   24DOPC   C13 3179   0.873   5.081   6.223  0.2900  0.3115 -0.5397
   24DOPC  H13A 3180   0.888   5.090   6.116  1.6115 -1.6146 -0.5464
   24DOPC  H13B 3181   0.803   5.155   6.259 -0.8569  0.1122 -2.2293
   24DOPC  H13C 3182   0.976   5.103   6.247  0.2870  3.7345 -2.7942
   24DOPC   C14 3183   0.950   4.862   6.238 -0.2946 -0.2199 -0.3604
   24DOPC  H14A 3184   1.039   4.887   6.293 -0.6432 -0.2028  0.2001
   24DOPC  H14B 3185   0.935   4.758   6.262  0.3873 -0.3151 -0.3337
   24DOPC  H14C 3186   0.964   4.866   6.131  1.1571  0.0627 -0.1843
   24DOPC   C15 3187   0.786   4.944   6.398 -0.1245 -0.1284  0.2696
   24DOPC  H15A 3188   0.861   4.987   6.462 -1.8690  0.3732  2.0683
   24DOPC  H15B 3189   0.770   4.841   6.429  0.5229 -1.2731 -2.8129
   24DOPC  H15C 3190   0.687   4.987   6.409 -1.2863 -2.2429 -1.0787
   24DOPC   C11 3191   0.665   4.759   6.153  0.1008  0.0939 -0.2115
   24DOPC  H11A 3192   0.639   4.737   6.259  0.3736  0.1067 -0.1414
   24DOPC  H11B 3193   0.578   4.752   6.085  0.1031  1.1930 -0.3484
   24DOPC     P 3194   0.826   4.678   5.963  0.3746  0.3082 -0.0597
   24DOPC   O13 3195   0.899   4.554   5.923  0.2910  0.2178 -0.6619
   24DOPC   O14 3196   0.897   4.801   5.937 -0.3791 -0.0735  0.0151
   24DOPC   O12 3197   0.779   4.680   6.114  0.1628  0.0648 -0.3985
   24DOPC   O11 3198   0.695   4.683   5.876 -0.1333 -0.1629  0.0126
   24DOPC    C1 3199   0.613   4.562   5.868 -0.9970  0.5109  0.1952
   24DOPC    HA 3200   0.519   4.581   5.925 -0.0618  1.5155  1.4733
   24DOPC    HB 3201   0.660   4.470   5.908 -0.8500 -0.3903 -1.9371
   24DOPC    C2 3202   0.588   4.520   5.719  1.0199 -0.2460  0.1749
   24DOPC    HS 3203   0.685   4.482   5.679  1.0704 -0.8931  0.9077
   24DOPC   O21 3204   0.540   4.645   5.651 -0.1783  0.4652 -0.0396
   24DOPC   C21 3205   0.586   4.676   5.535 -0.2116 -0.3297  0.0874
   24DOPC   O22 3206   0.676   4.623   5.474  0.6725 -0.1025 -0.3576
   24DOPC   C22 3207   0.508   4.803   5.501 -0.5279  0.5285  0.2623
   24DOPC   H2R 3208   0.551   4.889   5.557  1.5340 -0.3246  0.0590
   24DOPC   H2S 3209   0.399   4.792   5.520 -0.4149 -1.8692 -0.1557
   24DOPC    C3 3210   0.485   4.401   5.702 -0.1332  0.3887 -0.3112
   24DOPC    HX 3211   0.387   4.442   5.733  0.5144  0.6869  1.4891
   24DOPC    HY 3212   0.508   4.320   5.774  1.0619  1.2299  0.3117
   24DOPC   O31 3213   0.474   4.363   5.561 -0.6947 -0.5740  0.4865
   24DOPC   C31 3214   0.373   4.288   5.530 -0.0002  0.3786 -0.4821
   24DOPC   O32 3215   0.285   4.242   5.603  0.4554 -0.2804 -0.2792
   24DOPC   C32 3216   0.382   4.251   5.381 -0.3734 -0.0915 -0.2856
   24DOPC   H2X 3217   0.470   4.304   5.339 -0.2528  1.0081  1.2520
   24DOPC   H2Y 3218   0.382   4.140   5.385  1.1710 -0.0875  0.4421
   24DOPC   C23 3219   0.524   4.833   5.350 -0.3872 -0.1131  0.1942
   24DOPC   H3R 3220   0.632   4.828   5.325  0.2660  1.8156  2.2891
   24DOPC   H3S 3221   0.501   4.941   5.337  0.6322  0.0288 -0.6080
   24DOPC   C24 3222   0.436   4.752   5.258  0.0433 -0.3023  0.0541
   24DOPC   H4R 3223   0.328   4.780   5.260  0.6862  2.7482 -1.5810
   24DOPC   H4S 3224   0.455   4.645   5.283 -0.3342 -0.3833  0.0016
   24DOPC   C25 3225   0.479   4.762   5.108  0.0910  0.2162  0.0646
   24DOPC   H5R 3226   0.583   4.727   5.093  0.1711  0.8137 -0.8579
   24DOPC   H5S 3227   0.466   4.867   5.074 -0.6088 -0.2814 -1.2783
   24DOPC   C26 3228   0.396   4.665   5.024 -0.0630  0.5507 -0.0064
   24DOPC   H6R 3229   0.287   4.659   5.048  0.1289 -1.1787  0.5119
   24DOPC   H6S 3230   0.429   4.561   5.038 -2.5866 -0.4876 -1.0622
   24DOPC   C27 3231   0.406   4.692   4.874 -0.4503 -0.1325  0.6816
   24DOPC   H7R 3232   0.363   4.598   4.833  0.0909  0.4614 -1.3635
   24DOPC   H7S 3233   0.515   4.702   4.856 -0.3871  2.1842  1.9516
   24DOPC   C28 3234   0.336   4.821   4.831  0.0091  0.0314 -0.3063
   24DOPC   H8R 3235   0.359   4.840   4.724 -0.8524  0.8044 -0.3690
   24DOPC   H8S 3236   0.380   4.900   4.895 -1.1631 -1.1689  2.1186
   24DOPC   C29 3237   0.192   4.831   4.853 -0.8289  0.1013  0.4976
   24DOPC   H9R 3238   0.164   4.858   4.956 -0.3795  1.0077  0.3990
   24DOPC  C210 3239   0.097   4.823   4.761  0.2654 -0.2716 -0.4668
   24DOPC  H10R 3240  -0.005   4.845   4.798  1.2045  0.6878  1.7086
   24DOPC  C211 3241   0.112   4.803   4.611 -0.1500  0.0293 -0.0791
   24DOPC  H11R 3242   0.214   4.834   4.578 -1.1920  3.0211 -0.7032
   24DOPC  H11S 3243   0.043   4.870   4.557 -1.8698  0.4022  2.4357
   24DOPC  C212 3244   0.069   4.664   4.563  0.6462  0.0019  0.1921
   24DOPC  H12R 3245   0.124   4.585   4.619  0.0561 -1.1997 -0.8751
   24DOPC  H12S 3246   0.104   4.647   4.459  0.1962 -0.3080  0.0842
   24DOPC  C213 3247  -0.084   4.639   4.564  0.5657 -0.4584 -0.2477
   24DOPC  H13R 3248  -0.147   4.704   4.498  1.6356  1.3161  0.4175
   24DOPC  H13S 3249  -0.127   4.667   4.663 -1.7580  2.8323 -1.9613
   24DOPC  C214 3250  -0.124   4.492   4.538  0.1247  0.2090  0.6692
   24DOPC  H14R 3251  -0.066   4.432   4.612  0.3031 -0.1244  0.2613
   24DOPC  H14S 3252  -0.096   4.467   4.434 -1.2225 -0.8453  0.5259
   24DOPC  C215 3253  -0.274   4.462   4.565 -0.3582 -0.2849  0.1129
   24DOPC  H15R 3254  -0.327   4.503   4.476 -2.0056 -1.5415  0.4493
   24DOPC  H15S 3255  -0.297   4.499   4.667  2.0675 -1.8687  1.3098
   24DOPC  C216 3256  -0.309   4.315   4.568 -1.1138  0.1965  0.4114
   24DOPC  H16R 3257  -0.268   4.254   4.650 -1.2513 -3.3285 -1.9310
   24DOPC  H16S 3258  -0.250   4.270   4.486  0.7808  1.3607  1.0831
   24DOPC  C217 3259  -0.457   4.276   4.549  0.4168 -0.8536 -0.6867
   24DOPC  H17R 3260  -0.465   4.171   4.514 -0.5434 -0.8923 -0.3767
   24DOPC  H17S 3261  -0.496   4.345   4.471  0.2647  0.9100  0.8662
   24DOPC  C218 3262  -0.541   4.298   4.676 -0.0465 -0.4539  0.1399
   24DOPC  H18R 3263  -0.647   4.280   4.648  0.4531 -1.7917 -0.9935
   24DOPC  H18S 3264  -0.529   4.402   4.715  2.8647 -1.0693  1.1157
   24DOPC  H18T 3265  -0.505   4.236   4.760  3.1644 -0.5106 -1.1286
   24DOPC   C33 3266   0.254   4.296   5.301  0.2632  0.2189 -0.8343
   24DOPC   H3X 3267   0.168   4.248   5.353 -2.0507 -0.5059 -4.8723
   24DOPC   H3Y 3268   0.270   4.256   5.199  0.0541  1.5545 -1.3995
   24DOPC   C34 3269   0.234   4.443   5.292 -0.0186  0.3454  0.4273
   24DOPC   H4X 3270   0.320   4.480   5.233 -0.8060 -1.9766 -2.4452
   24DOPC   H4Y 3271   0.245   4.497   5.388  0.8796  1.4122 -0.2516
   24DOPC   C35 3272   0.105   4.492   5.228 -0.2485 -0.0795 -0.0059
   24DOPC   H5X 3273   0.104   4.470   5.120 -2.9135 -0.0787 -0.0478
   24DOPC   H5Y 3274   0.096   4.602   5.241  1.2356  0.1227 -0.4900
   24DOPC   C36 3275  -0.029   4.430   5.278  0.3968 -0.0258  0.5626
   24DOPC   H6X 3276  -0.014   4.356   5.359 -0.0919 -0.5949  0.1436
   24DOPC   H6Y 3277  -0.092   4.506   5.330  2.2969  1.2591  1.0791
   24DOPC   C37 3278  -0.115   4.363   5.169 -0.3693  0.0888  0.3639
   24DOPC   H7X 3279  -0.125   4.443   5.092 -0.8683  1.4099  1.7398
   24DOPC   H7Y 3280  -0.069   4.275   5.120 -2.1012 -0.1546 -0.9470
   24DOPC   C38 3281  -0.265   4.332   5.216 -0.8662 -0.3471  0.0092
   24DOPC   H8X 3282  -0.325   4.422   5.240  0.1623  1.2901 -3.0671
   24DOPC   H8Y 3283  -0.243   4.281   5.312  0.3740 -0.8239 -0.5082
   24DOPC   C39 3284  -0.338   4.233   5.129 -0.4058  0.4157 -0.6436
   24DOPC   H9X 3285  -0.269   4.158   5.086  0.4234  2.1097 -2.4022
   24DOPC  C310 3286  -0.475   4.226   5.120 -0.1473  0.1739 -0.5596
   24DOPC  H10X 3287  -0.525   4.151   5.057 -0.2488  1.0137 -1.5057
   24DOPC  C311 3288  -0.563   4.326   5.192  0.3382  0.5726  0.2717
   24DOPC  H11X 3289  -0.507   4.374   5.275  0.3195 -0.6847  1.0307
   24DOPC  H11Y 3290  -0.644   4.274   5.248  0.4687  0.2147  0.1290
   24DOPC  C312 3291  -0.611   4.444   5.106  0.2534 -0.1569  0.2067
   24DOPC  H12X 3292  -0.653   4.401   5.013  0.5637  1.7383 -0.8539
   24DOPC  H12Y 3293  -0.526   4.509   5.077  0.4484 -0.6941 -0.4477
   24DOPC  C313 3294  -0.705   4.537   5.167 -0.1831 -0.4649 -0.7558
   24DOPC  H13X 3295  -0.669   4.569   5.267 -1.2819 -0.7248 -0.2555
   24DOPC  H13Y 3296  -0.701   4.625   5.099  2.0047 -0.8402 -1.1791
   24DOPC  C314 3297  -0.846   4.478   5.209 -0.5199 -0.4681  0.1978
   24DOPC  H14X 3298  -0.908   4.443   5.125 -2.2261  1.9278  0.3471
   24DOPC  H14Y 3299  -0.847   4.395   5.282  0.8677 -0.3780  0.3647
   24DOPC  C315 3300  -0.937   4.591   5.251 -0.2328 -0.3255 -0.1577
   24DOPC  H15X 3301  -1.042   4.561   5.229 -0.3405  0.2319 -0.4001
   24DOPC  H15Y 3302  -0.912   4.686   5.200  0.4053 -0.6129 -0.3980
   24DOPC  C316 3303  -0.938   4.604   5.406 -0.1662  0.0876  0.2342
   24DOPC  H16X 3304  -1.007   4.535   5.459 -0.6656  1.2437  1.1438
   24DOPC  H16Y 3305  -0.839   4.574   5.446 -1.1900 -0.7673  2.2935
   24DOPC  C317 3306  -0.969   4.746   5.445  0.2351 -0.4884  0.0809
   24DOPC  H17X 3307  -0.883   4.813   5.426  1.1165 -1.5768  0.1195
   24DOPC  H17Y 3308  -1.056   4.780   5.384  0.0630 -0.6192  0.2497
   24DOPC  C318 3309  -1.027   4.759   5.587 -0.4726 -0.7508  0.0248
   24DOPC  H18X 3310  -1.120   4.703   5.612  0.4458 -2.3790 -0.0362
   24DOPC  H18Y 3311  -0.949   4.738   5.663 -1.5624 -0.6928  1.1922
   24DOPC  H18Z 3312  -1.042   4.869   5.593  0.0716 -0.7433  1.5371
   25DOPC     N 3313   6.230   4.253   6.144  0.7603  0.8176  0.9281
   25DOPC   C12 3314   6.307   4.124   6.116 -0.3040  0.2297  0.0775
   25DOPC  H12A 3315   6.330   4.087   6.215  0.9522 -1.0087 -0.6332
   25DOPC  H12B 3316   6.393   4.154   6.058 -1.4074 -3.7601 -4.2839
   25DOPC   C13 3317   6.192   4.316   6.014  0.2351 -1.1997  0.7400
   25DOPC  H13A 3318   6.274   4.335   5.947 -0.2035 -1.4712  0.1116
   25DOPC  H13B 3319   6.119   4.250   5.968  1.9821 -1.6594 -1.5300
   25DOPC  H13C 3320   6.158   4.418   6.027  0.7082 -0.9051 -0.2306
   25DOPC   C14 3321   6.302   4.343   6.220 -0.3098  0.0477 -0.2863
   25DOPC  H14A 3322   6.398   4.365   6.176 -0.3939 -0.1053 -0.5494
   25DOPC  H14B 3323   6.257   4.440   6.236  1.1697  0.7184 -0.0583
   25DOPC  H14C 3324   6.300   4.309   6.322  1.1923 -0.8686 -0.5307
   25DOPC   C15 3325   6.102   4.221   6.214 -0.2923  0.2407 -0.3409
   25DOPC  H15A 3326   6.053   4.308   6.256 -1.2405 -0.8911  1.0106
   25DOPC  H15B 3327   6.118   4.160   6.302 -0.1434 -0.2205 -0.6864
   25DOPC  H15C 3328   6.035   4.171   6.146  0.8838 -1.2812 -0.4318
   25DOPC   C11 3329   6.237   4.012   6.039 -0.4021  0.0818 -0.1034
   25DOPC  H11A 3330   6.191   4.062   5.951  0.5778  0.1399 -0.6019
   25DOPC  H11B 3331   6.308   3.940   5.994 -1.4990 -1.5936  0.7579
   25DOPC     P 3332   6.166   3.826   6.214  0.9302 -0.1673 -0.0325
   25DOPC   O13 3333   6.050   3.808   6.300  0.2076 -0.1809 -0.3236
   25DOPC   O14 3334   6.305   3.833   6.272 -0.1804 -0.1161 -0.1164
   25DOPC   O12 3335   6.144   3.950   6.123 -0.2648 -0.2083  0.2858
   25DOPC   O11 3336   6.168   3.709   6.112 -0.3628  0.1152  0.1269
   25DOPC    C1 3337   6.073   3.699   6.006 -0.6418 -0.1827  0.5619
   25DOPC    HA 3338   6.047   3.795   5.956  0.1805  0.4010  1.2344
   25DOPC    HB 3339   5.977   3.656   6.043  0.1321 -1.9069  0.6678
   25DOPC    C2 3340   6.121   3.601   5.898 -0.1544  0.0519 -0.2401
   25DOPC    HS 3341   6.148   3.510   5.956  1.4220 -0.6396 -1.9420
   25DOPC   O21 3342   6.227   3.673   5.830 -0.2141  0.5616  0.1126
   25DOPC   C21 3343   6.309   3.600   5.759 -0.2896  0.4479  0.2420
   25DOPC   O22 3344   6.310   3.478   5.760  0.8517  0.1966  0.2190
   25DOPC   C22 3345   6.418   3.694   5.706  0.1633  0.2130 -0.3110
   25DOPC   H2R 3346   6.495   3.689   5.786  2.9735 -2.6150 -2.9208
   25DOPC   H2S 3347   6.381   3.799   5.698 -1.9231 -0.5714 -1.7150
   25DOPC    C3 3348   6.015   3.559   5.796 -0.9432  0.0920  0.1230
   25DOPC    HX 3349   5.939   3.498   5.849 -0.9364 -0.4631 -0.4890
   25DOPC    HY 3350   6.060   3.492   5.719 -0.7012 -1.4367  1.5500
   25DOPC   O31 3351   5.951   3.677   5.743 -0.8308 -0.2806  0.1484
   25DOPC   C31 3352   5.825   3.704   5.779 -0.3405 -0.2934  0.2066
   25DOPC   O32 3353   5.768   3.642   5.867 -0.2286 -0.5439 -0.3603
   25DOPC   C32 3354   5.755   3.822   5.700  0.2508 -0.0289  0.4336
   25DOPC   H2X 3355   5.785   3.907   5.764 -0.8526 -0.4648  1.5676
   25DOPC   H2Y 3356   5.807   3.825   5.602 -0.3277 -1.5337  0.0534
   25DOPC   C23 3357   6.477   3.654   5.568 -0.0715 -0.2609  0.0127
   25DOPC   H3R 3358   6.396   3.649   5.492 -0.0466 -1.9765  0.0653
   25DOPC   H3S 3359   6.520   3.552   5.582  0.4084 -0.0122  0.4137
   25DOPC   C24 3360   6.584   3.754   5.527  0.5959  0.0499 -0.1665
   25DOPC   H4R 3361   6.657   3.758   5.611  1.1732  1.2796 -0.6934
   25DOPC   H4S 3362   6.542   3.856   5.513  0.0073 -0.5235 -3.7391
   25DOPC   C25 3363   6.654   3.715   5.395 -0.0104  0.0114  0.2268
   25DOPC   H5R 3364   6.654   3.604   5.394  1.4094 -0.0655  2.3896
   25DOPC   H5S 3365   6.757   3.753   5.415 -1.6178  2.7288  4.5008
   25DOPC   C26 3366   6.587   3.768   5.269  0.2840 -0.4637 -0.7215
   25DOPC   H6R 3367   6.604   3.878   5.256  1.0804 -0.5818 -0.7136
   25DOPC   H6S 3368   6.476   3.766   5.272  0.3219 -1.9842  0.9412
   25DOPC   C27 3369   6.659   3.704   5.152  0.3520  0.3119 -0.0685
   25DOPC   H7R 3370   6.651   3.594   5.169 -0.5418  0.4805  0.6428
   25DOPC   H7S 3371   6.766   3.729   5.133 -0.5624  4.0052 -1.1450
   25DOPC   C28 3372   6.587   3.741   5.022 -0.1864 -0.4195 -0.1836
   25DOPC   H8R 3373   6.642   3.698   4.936 -2.7885 -1.8408 -1.2324
   25DOPC   H8S 3374   6.591   3.852   5.015  0.4604 -0.2345  2.1161
   25DOPC   C29 3375   6.439   3.691   5.001  0.1202 -0.1013 -0.3209
   25DOPC   H9R 3376   6.375   3.700   5.090  3.1753  0.4864  1.9824
   25DOPC  C210 3377   6.380   3.665   4.885  0.3317  0.3136  0.4942
   25DOPC  H10R 3378   6.279   3.622   4.895  0.4348  0.4332  2.5516
   25DOPC  C211 3379   6.433   3.698   4.749  0.5380 -0.1516 -0.2838
   25DOPC  H11R 3380   6.389   3.629   4.674  0.2925  0.2659 -0.5322
   25DOPC  H11S 3381   6.542   3.717   4.740  0.6921 -0.7191  0.3418
   25DOPC  C212 3382   6.373   3.831   4.699  0.0142  0.7655 -0.3713
   25DOPC  H12R 3383   6.263   3.821   4.693  0.1151 -0.7642 -0.0308
   25DOPC  H12S 3384   6.398   3.840   4.591  1.2173 -3.2177 -0.5698
   25DOPC  C213 3385   6.417   3.962   4.768 -0.6414  0.0391 -0.5923
   25DOPC  H13R 3386   6.423   3.946   4.877  0.5730  1.0590 -0.4888
   25DOPC  H13S 3387   6.333   4.034   4.759 -0.5027  0.2336 -0.3448
   25DOPC  C214 3388   6.553   4.010   4.724  0.3602 -0.4065 -0.2195
   25DOPC  H14R 3389   6.550   4.038   4.617 -2.4574  1.8590  0.3396
   25DOPC  H14S 3390   6.624   3.927   4.745  0.5027 -0.1248  0.4408
   25DOPC  C215 3391   6.606   4.128   4.809 -0.4287 -0.2215 -0.6009
   25DOPC  H15R 3392   6.585   4.104   4.915 -0.2883  1.0051 -0.2813
   25DOPC  H15S 3393   6.546   4.221   4.793  0.2348  0.0647 -1.5241
   25DOPC  C216 3394   6.754   4.167   4.785  0.3499 -0.5022  0.0133
   25DOPC  H16R 3395   6.758   4.221   4.687 -0.3934 -3.3333 -1.7019
   25DOPC  H16S 3396   6.830   4.086   4.785 -0.4979 -1.3130 -0.5207
   25DOPC  C217 3397   6.807   4.271   4.887 -0.4250 -0.7335  0.0003
   25DOPC  H17R 3398   6.781   4.236   4.989 -0.6828 -1.4820 -0.3191
   25DOPC  H17S 3399   6.750   4.365   4.867  1.7452  0.3016 -1.8388
   25DOPC  C218 3400   6.955   4.307   4.881 -0.3928  0.4711 -0.2086
   25DOPC  H18R 3401   6.981   4.379   4.801  0.8146  0.3039  0.0227
   25DOPC  H18S 3402   7.008   4.209   4.875 -1.3139 -0.1991  1.6686
   25DOPC  H18T 3403   6.983   4.356   4.977 -1.4053 -0.5070  0.6282
   25DOPC   C33 3404   5.602   3.787   5.693 -0.5734 -0.6105  0.5739
   25DOPC   H3X 3405   5.561   3.865   5.624  1.4143 -1.0064 -1.1505
   25DOPC   H3Y 3406   5.539   3.790   5.784 -0.6656 -0.4515  0.5073
   25DOPC   C34 3407   5.577   3.662   5.609  0.6351 -0.2851  0.4239
   25DOPC   H4X 3408   5.621   3.584   5.675  0.8378  0.7579  1.5410
   25DOPC   H4Y 3409   5.640   3.664   5.517  0.6623 -1.0535  0.4186
   25DOPC   C35 3410   5.432   3.625   5.571  0.0494 -0.0640  0.5602
   25DOPC   H5X 3411   5.375   3.622   5.667 -0.1242 -1.7493  0.4389
   25DOPC   H5Y 3412   5.426   3.519   5.540 -0.9376  0.3234 -0.6449
   25DOPC   C36 3413   5.366   3.725   5.479 -0.5563  0.2654  0.3300
   25DOPC   H6X 3414   5.362   3.824   5.528  0.6035  0.9198 -0.8216
   25DOPC   H6Y 3415   5.444   3.733   5.400 -0.5650 -0.0638  0.2856
   25DOPC   C37 3416   5.233   3.697   5.426  0.1111 -0.3347 -0.7358
   25DOPC   H7X 3417   5.246   3.602   5.370  2.6620 -0.1330 -0.6002
   25DOPC   H7Y 3418   5.154   3.689   5.504  0.3647  0.8962 -0.3320
   25DOPC   C38 3419   5.185   3.809   5.324  0.7643 -0.1066  0.1528
   25DOPC   H8X 3420   5.093   3.764   5.281 -0.1070  2.6444 -1.0896
   25DOPC   H8Y 3421   5.264   3.813   5.246  0.5090 -1.5841 -0.2057
   25DOPC   C39 3422   5.139   3.940   5.387 -0.3669  0.2782  0.3606
   25DOPC   H9X 3423   5.219   3.987   5.446 -0.0943 -1.2036  1.2191
   25DOPC  C310 3424   5.018   4.003   5.381 -0.2416 -0.4837  0.9155
   25DOPC  H10X 3425   5.003   4.095   5.438  2.8135  0.1200  0.9228
   25DOPC  C311 3426   4.910   3.965   5.286  0.2170 -0.3952  0.3973
   25DOPC  H11X 3427   4.834   3.893   5.326 -0.2673  0.1927  0.5505
   25DOPC  H11Y 3428   4.957   3.913   5.200  1.1544  1.8997 -0.5348
   25DOPC  C312 3429   4.836   4.079   5.229  1.2448  0.1519  0.1736
   25DOPC  H12X 3430   4.802   4.147   5.310  0.2862 -2.3796  2.0137
   25DOPC  H12Y 3431   4.743   4.032   5.189  0.2680  0.5431  1.9086
   25DOPC  C313 3432   4.907   4.170   5.127 -0.0496 -0.3984  0.8039
   25DOPC  H13X 3433   5.009   4.178   5.169  0.9548 -3.1999 -0.8309
   25DOPC  H13Y 3434   4.914   4.118   5.029 -1.0546 -0.9647  1.0149
   25DOPC  C314 3435   4.851   4.310   5.128  0.3948  0.2928 -0.0378
   25DOPC  H14X 3436   4.742   4.313   5.108  0.8399  0.3965 -2.8365
   25DOPC  H14Y 3437   4.872   4.342   5.232 -0.0546 -2.0608  0.8548
   25DOPC  C315 3438   4.921   4.407   5.039 -0.2450 -0.3764 -0.2491
   25DOPC  H15X 3439   4.900   4.377   4.935  2.0545 -3.2597 -0.0225
   25DOPC  H15Y 3440   5.031   4.396   5.056 -0.0016  1.4566 -0.4556
   25DOPC  C316 3441   4.888   4.553   5.077 -0.1269  1.4014  0.7771
   25DOPC  H16X 3442   4.778   4.561   5.084 -0.2880 -0.2502  0.3778
   25DOPC  H16Y 3443   4.938   4.579   5.173  1.9363 -0.3350  0.2446
   25DOPC  C317 3444   4.944   4.640   4.964  0.0213 -0.0933  0.2296
   25DOPC  H17X 3445   5.041   4.590   4.941 -0.4557 -2.6948  3.1793
   25DOPC  H17Y 3446   4.875   4.631   4.878 -0.4957 -1.2039  0.7417
   25DOPC  C318 3447   4.956   4.795   4.979  0.0956  0.0685  0.0519
   25DOPC  H18X 3448   5.023   4.815   5.066  0.9889 -2.8265  0.1235
   25DOPC  H18Y 3449   4.999   4.842   4.888  1.5463 -0.1113  0.6240
   25DOPC  H18Z 3450   4.857   4.842   4.998  1.7212  3.7526  0.1717
   26DOPC     N 3451   5.522   5.596   6.701  0.0748 -0.2829  0.2900
   26DOPC   C12 3452   5.515   5.747   6.712 -0.3917  0.3316 -0.0049
   26DOPC  H12A 3453   5.578   5.789   6.636 -1.2798  2.6463  0.4333
   26DOPC  H12B 3454   5.549   5.777   6.810  5.0102 -1.4048 -1.0157
   26DOPC   C13 3455   5.443   5.544   6.580 -0.4951 -0.1269 -0.6048
   26DOPC  H13A 3456   5.444   5.437   6.567  1.2180 -0.3254  0.7624
   26DOPC  H13B 3457   5.342   5.582   6.577 -0.5057  0.1056  1.5344
   26DOPC  H13C 3458   5.491   5.570   6.486 -0.1108 -2.9221 -1.2721
   26DOPC   C14 3459   5.449   5.531   6.818  0.0414  0.3351  0.7516
   26DOPC  H14A 3460   5.353   5.576   6.839  0.2830  0.0179  2.7371
   26DOPC  H14B 3461   5.429   5.425   6.820  1.6996 -0.0063  0.1766
   26DOPC  H14C 3462   5.498   5.552   6.912  0.6798  1.1320  0.2496
   26DOPC   C15 3463   5.665   5.551   6.695 -0.8164 -0.5002  0.0747
   26DOPC  H15A 3464   5.692   5.451   6.725  0.0465 -0.3165 -0.0522
   26DOPC  H15B 3465   5.738   5.617   6.742 -3.5126  1.1538  2.2605
   26DOPC  H15C 3466   5.704   5.562   6.595  1.5872  2.8010  1.2045
   26DOPC   C11 3467   5.376   5.819   6.684 -0.8343  0.0023 -0.7713
   26DOPC  H11A 3468   5.289   5.776   6.739 -2.4348  2.3727 -1.2852
   26DOPC  H11B 3469   5.400   5.917   6.729  0.8499 -1.2257  1.1949
   26DOPC     P 3470   5.210   5.881   6.499 -0.2605 -0.4003  0.0356
   26DOPC   O13 3471   5.216   6.029   6.486  0.0050 -0.0829  0.3743
   26DOPC   O14 3472   5.106   5.826   6.587 -0.3452  1.0484 -0.0078
   26DOPC   O12 3473   5.352   5.827   6.545  0.2944  0.1959  0.3702
   26DOPC   O11 3474   5.196   5.820   6.349 -0.2455  0.1822 -0.8035
   26DOPC    C1 3475   5.291   5.726   6.310 -0.5541  0.2531  0.2936
   26DOPC    HA 3476   5.291   5.636   6.375  1.3638  1.4238  2.0432
   26DOPC    HB 3477   5.390   5.774   6.297 -0.3002 -0.7089 -1.7503
   26DOPC    C2 3478   5.259   5.690   6.162  0.4738  0.2321 -0.0046
   26DOPC    HS 3479   5.329   5.610   6.130  1.0320  1.1119 -1.0581
   26DOPC   O21 3480   5.261   5.811   6.075 -0.1456  0.5312 -0.3785
   26DOPC   C21 3481   5.375   5.855   6.044 -0.3891  0.8506  0.1874
   26DOPC   O22 3482   5.482   5.804   6.073 -0.6118 -0.3271 -0.9456
   26DOPC   C22 3483   5.363   5.964   5.945 -0.3834  0.5410 -0.4424
   26DOPC   H2R 3484   5.326   6.059   5.990  0.5600  0.3327  0.8487
   26DOPC   H2S 3485   5.294   5.924   5.868  2.5937 -2.4621 -1.7519
   26DOPC    C3 3486   5.121   5.625   6.154 -0.3512  1.0714  0.7195
   26DOPC    HX 3487   5.043   5.700   6.179 -1.5330  1.1858 -2.7459
   26DOPC    HY 3488   5.120   5.547   6.232 -0.5673 -0.5302 -0.8333
   26DOPC   O31 3489   5.094   5.553   6.024  0.2490  0.4629 -0.3805
   26DOPC   C31 3490   5.040   5.635   5.935 -0.9051  0.2805  0.1519
   26DOPC   O32 3491   5.015   5.755   5.952  0.1901  0.4568 -0.2819
   26DOPC   C32 3492   5.034   5.562   5.805 -0.4035  0.1053  0.6859
   26DOPC   H2X 3493   5.137   5.555   5.765  0.0816 -1.0339  2.0161
   26DOPC   H2Y 3494   5.001   5.459   5.830  0.7162 -0.0293  1.6953
   26DOPC   C23 3495   5.497   5.981   5.863 -0.6497 -0.1330 -0.9773
   26DOPC   H3R 3496   5.534   5.881   5.835 -1.7928 -0.1906 -2.3896
   26DOPC   H3S 3497   5.577   6.014   5.934 -1.4429 -0.7748  0.2498
   26DOPC   C24 3498   5.492   6.089   5.754 -0.0327  0.1352 -0.1173
   26DOPC   H4R 3499   5.597   6.115   5.727  0.2718 -0.0132  0.8463
   26DOPC   H4S 3500   5.450   6.181   5.799  1.9002 -0.2466  2.7944
   26DOPC   C25 3501   5.399   6.062   5.637 -0.9362  0.2145 -0.7187
   26DOPC   H5R 3502   5.393   6.140   5.558 -0.1428  0.2902 -0.7182
   26DOPC   H5S 3503   5.296   6.057   5.677 -0.5246 -0.7323  0.2779
   26DOPC   C26 3504   5.442   5.926   5.568  0.2231  0.4609  0.0265
   26DOPC   H6R 3505   5.349   5.878   5.533 -0.3197  0.8957  0.8437
   26DOPC   H6S 3506   5.479   5.859   5.649 -2.3647 -0.6401  0.3714
   26DOPC   C27 3507   5.549   5.940   5.458 -0.2111  0.5502  0.0268
   26DOPC   H7R 3508   5.640   5.989   5.500 -0.0172 -0.4109  0.7671
   26DOPC   H7S 3509   5.504   5.999   5.376 -3.1034 -0.6538  0.6476
   26DOPC   C28 3510   5.607   5.806   5.410 -0.5595 -0.0419 -0.3657
   26DOPC   H8R 3511   5.640   5.745   5.497  0.8459 -2.7687 -2.6354
   26DOPC   H8S 3512   5.692   5.835   5.345 -0.6260 -0.2339 -0.5366
   26DOPC   C29 3513   5.501   5.715   5.359 -0.0891 -0.2771  0.0833
   26DOPC   H9R 3514   5.422   5.699   5.434  0.9793 -0.6461  1.1666
   26DOPC  C210 3515   5.488   5.674   5.237  0.0833 -0.0838  0.4974
   26DOPC  H10R 3516   5.396   5.618   5.211  0.4862 -0.2743 -0.5587
   26DOPC  C211 3517   5.574   5.688   5.116  0.6358 -0.3010 -0.4194
   26DOPC  H11R 3518   5.679   5.703   5.151  0.6794 -0.9757 -0.2440
   26DOPC  H11S 3519   5.543   5.777   5.057 -1.6369  0.5259  1.7975
   26DOPC  C212 3520   5.587   5.556   5.038 -0.3605 -0.7208 -0.2042
   26DOPC  H12R 3521   5.500   5.523   4.978 -1.4131 -0.7457  1.2909
   26DOPC  H12S 3522   5.593   5.470   5.108 -0.6198 -0.0845  0.6228
   26DOPC  C213 3523   5.707   5.561   4.947 -0.0172 -0.0103  0.3995
   26DOPC  H13R 3524   5.803   5.582   4.998  0.1470 -0.8769  0.4656
   26DOPC  H13S 3525   5.700   5.648   4.879  0.5946 -1.5779 -1.8136
   26DOPC  C214 3526   5.724   5.428   4.868  0.3573  0.1715  0.3182
   26DOPC  H14R 3527   5.637   5.409   4.801  0.6053  0.6494 -0.1495
   26DOPC  H14S 3528   5.723   5.335   4.929 -1.4254  0.3472  0.6044
   26DOPC  C215 3529   5.844   5.431   4.776  0.6134  0.1074  0.0887
   26DOPC  H15R 3530   5.937   5.427   4.836  0.4805 -1.1599  0.2567
   26DOPC  H15S 3531   5.849   5.523   4.714 -0.2978 -1.0452 -1.8037
   26DOPC  C216 3532   5.851   5.309   4.680  0.2773 -0.8644  0.0965
   26DOPC  H16R 3533   5.753   5.302   4.628 -0.5108  0.9797  1.2148
   26DOPC  H16S 3534   5.856   5.218   4.745 -1.4999  0.3491  2.0514
   26DOPC  C217 3535   5.963   5.322   4.580  0.2471  0.3990  0.1015
   26DOPC  H17R 3536   6.060   5.314   4.634 -0.9133  0.9858  2.4153
   26DOPC  H17S 3537   5.955   5.419   4.526  0.0538  0.4444  0.2100
   26DOPC  C218 3538   5.947   5.207   4.478 -0.7111  0.8928  0.0739
   26DOPC  H18R 3539   6.044   5.174   4.436 -0.9265 -1.8696  1.5691
   26DOPC  H18S 3540   5.877   5.226   4.394  0.9835 -0.5310 -1.7766
   26DOPC  H18T 3541   5.911   5.118   4.533 -0.2987  0.4649 -0.3456
   26DOPC   C33 3542   4.943   5.634   5.701  0.0260 -0.0945  0.9500
   26DOPC   H3X 3543   5.000   5.726   5.675 -0.4863  0.0245  0.1978
   26DOPC   H3Y 3544   4.846   5.665   5.745 -0.8329 -1.5619  0.1676
   26DOPC   C34 3545   4.925   5.550   5.575 -0.3507 -0.3843 -0.5565
   26DOPC   H4X 3546   4.839   5.591   5.517 -0.0312 -0.1924 -0.8941
   26DOPC   H4Y 3547   4.897   5.446   5.602 -3.1144  0.5137  0.4432
   26DOPC   C35 3548   5.043   5.546   5.479  0.5453 -0.2015  0.2503
   26DOPC   H5X 3549   5.119   5.473   5.514 -0.9217 -1.5787  0.6910
   26DOPC   H5Y 3550   5.089   5.647   5.476  1.8249 -0.7686 -1.7610
   26DOPC   C36 3551   5.003   5.507   5.342  0.0311  0.4524  0.4567
   26DOPC   H6X 3552   4.973   5.401   5.328  1.4799  0.0701  0.1521
   26DOPC   H6Y 3553   4.921   5.571   5.302 -0.8330  0.2429  1.8503
   26DOPC   C37 3554   5.122   5.547   5.246  0.1940 -0.6139 -0.7428
   26DOPC   H7X 3555   5.141   5.656   5.247 -1.0606 -0.3765  0.2483
   26DOPC   H7Y 3556   5.212   5.496   5.286  0.0183 -1.4155 -1.3434
   26DOPC   C38 3557   5.107   5.509   5.097 -0.4706  0.5140  0.1098
   26DOPC   H8X 3558   5.111   5.398   5.094  1.1316  0.5617 -0.3495
   26DOPC   H8Y 3559   5.208   5.537   5.058 -0.9805  1.7417 -0.3680
   26DOPC   C39 3560   4.985   5.555   5.019 -0.3222 -0.3190  0.2419
   26DOPC   H9X 3561   4.887   5.526   5.059 -0.4282 -0.5446 -0.1691
   26DOPC  C310 3562   4.984   5.639   4.917 -0.4316  0.4520  0.1323
   26DOPC  H10X 3563   4.892   5.648   4.858 -1.5755 -0.9294  1.6295
   26DOPC  C311 3564   5.109   5.690   4.839 -0.1897  0.4415 -0.3558
   26DOPC  H11X 3565   5.204   5.646   4.876  0.8199  2.0896 -0.8767
   26DOPC  H11Y 3566   5.133   5.794   4.868 -0.9887 -0.5432  4.8974
   26DOPC  C312 3567   5.095   5.676   4.686  0.6326 -0.2665  0.4613
   26DOPC  H12X 3568   5.063   5.572   4.667  0.1865  0.0355 -0.4882
   26DOPC  H12Y 3569   5.194   5.686   4.636  0.3832 -2.3337 -0.5634
   26DOPC  C313 3570   5.001   5.776   4.616  0.3671 -0.6409  0.0118
   26DOPC  H13X 3571   4.903   5.788   4.667 -0.7163 -1.6441 -1.7208
   26DOPC  H13Y 3572   5.054   5.874   4.617  1.4770 -1.0808 -3.5149
   26DOPC  C314 3573   4.971   5.740   4.473 -0.2503  0.0596  0.4232
   26DOPC  H14X 3574   5.064   5.721   4.414 -0.2069  1.8856 -0.1485
   26DOPC  H14Y 3575   4.914   5.646   4.487  0.3418  0.0456  3.3164
   26DOPC  C315 3576   4.888   5.844   4.392 -1.2089 -0.4934 -0.7516
   26DOPC  H15X 3577   4.956   5.930   4.374  0.1998 -1.3455  0.2732
   26DOPC  H15Y 3578   4.807   5.888   4.455 -2.1528 -2.0305 -0.8426
   26DOPC  C316 3579   4.822   5.799   4.260 -0.2858 -0.3492 -0.3328
   26DOPC  H16X 3580   4.747   5.718   4.274  0.7012 -1.1243  0.6090
   26DOPC  H16Y 3581   4.770   5.890   4.221  4.4840  2.4116 -1.0536
   26DOPC  C317 3582   4.912   5.742   4.151 -0.0103  0.7220  0.4034
   26DOPC  H17X 3583   4.998   5.806   4.124  3.2849 -3.8642 -1.2252
   26DOPC  H17Y 3584   4.959   5.647   4.184  0.3207  0.2696 -1.2633
   26DOPC  C318 3585   4.830   5.732   4.018  0.1478 -0.5765 -0.6757
   26DOPC  H18X 3586   4.780   5.826   3.989  0.4067 -0.0621  0.4685
   26DOPC  H18Y 3587   4.901   5.700   3.939 -1.2525 -2.0653 -1.3906
   26DOPC  H18Z 3588   4.751   5.654   4.027  0.8298 -1.4224 -1.8070
   27DOPC     N 3589   3.678   6.668   6.246 -0.2517 -0.0778  0.7069
   27DOPC   C12 3590   3.697   6.667   6.096  0.3289  0.5166 -0.5641
   27DOPC  H12A 3591   3.641   6.750   6.056 -3.0187 -1.5997 -0.6727
   27DOPC  H12B 3592   3.647   6.588   6.042 -3.4723  0.6489  2.3564
   27DOPC   C13 3593   3.709   6.536   6.307 -0.3712  0.2030  0.5038
   27DOPC  H13A 3594   3.807   6.513   6.269 -0.7175  1.0232 -0.9728
   27DOPC  H13B 3595   3.710   6.545   6.415  2.6742 -0.0950  0.5876
   27DOPC  H13C 3596   3.636   6.469   6.265 -1.3154  1.3468  0.2769
   27DOPC   C14 3597   3.536   6.716   6.274  0.6028  0.2794  0.1046
   27DOPC  H14A 3598   3.517   6.731   6.380 -1.3703  1.0473 -0.3170
   27DOPC  H14B 3599   3.520   6.807   6.219 -2.4528 -1.1642 -1.6360
   27DOPC  H14C 3600   3.463   6.644   6.239  2.5014 -0.9105 -1.6416
   27DOPC   C15 3601   3.773   6.763   6.312  0.1280  0.1849 -0.4699
   27DOPC  H15A 3602   3.872   6.719   6.306  0.3956  0.5097  1.0625
   27DOPC  H15B 3603   3.751   6.776   6.417 -0.3343 -0.0761 -0.5337
   27DOPC  H15C 3604   3.762   6.863   6.271 -2.1586  0.6980  1.2231
   27DOPC   C11 3605   3.849   6.664   6.044 -0.2568 -0.5581  0.3263
   27DOPC  H11A 3606   3.848   6.647   5.934  0.1069  1.2494 -0.0002
   27DOPC  H11B 3607   3.904   6.760   6.054  0.8854 -1.0589 -0.9025
   27DOPC     P 3608   4.068   6.529   6.101 -0.2357  0.1032  0.0809
   27DOPC   O13 3609   4.091   6.383   6.127 -0.1586 -0.1382 -0.5246
   27DOPC   O14 3610   4.135   6.625   6.190 -0.5077  0.8083  0.5601
   27DOPC   O12 3611   3.914   6.553   6.111  0.8721  0.0942  0.1300
   27DOPC   O11 3612   4.106   6.570   5.951  0.4342 -0.0191 -0.7735
   27DOPC    C1 3613   4.237   6.613   5.913 -0.2974 -0.7105 -0.2138
   27DOPC    HA 3614   4.319   6.594   5.985  0.5660  2.2556 -0.3171
   27DOPC    HB 3615   4.239   6.722   5.897  2.7113 -0.6924 -0.1894
   27DOPC    C2 3616   4.277   6.547   5.782 -0.2856  0.1777 -0.1814
   27DOPC    HS 3617   4.376   6.573   5.739  0.4907 -0.2017  1.3067
   27DOPC   O21 3618   4.176   6.565   5.683 -0.3795  0.5238  0.0417
   27DOPC   C21 3619   4.189   6.688   5.626  0.2554 -0.7458  0.3356
   27DOPC   O22 3620   4.280   6.768   5.650  0.2464 -0.1628  0.1571
   27DOPC   C22 3621   4.087   6.715   5.515 -0.9120  0.2688  0.1043
   27DOPC   H2R 3622   4.112   6.811   5.464  1.5875  0.7713  2.0652
   27DOPC   H2S 3623   3.994   6.729   5.573 -1.3231  0.7789 -0.6609
   27DOPC    C3 3624   4.290   6.397   5.809  0.0241 -0.4210  0.2646
   27DOPC    HX 3625   4.197   6.357   5.856 -0.6239 -3.2593 -3.0730
   27DOPC    HY 3626   4.367   6.379   5.887  0.2866  1.6805  0.5478
   27DOPC   O31 3627   4.329   6.331   5.694  0.2339  0.3601  0.2565
   27DOPC   C31 3628   4.238   6.267   5.630 -0.0339  0.5455 -0.1307
   27DOPC   O32 3629   4.117   6.250   5.654  0.2100 -0.1998  0.4313
   27DOPC   C32 3630   4.303   6.212   5.507 -0.6709  0.1219  1.3258
   27DOPC   H2X 3631   4.342   6.301   5.452 -0.3366 -1.6067 -1.4457
   27DOPC   H2Y 3632   4.389   6.151   5.542  0.4172  0.0929 -1.2011
   27DOPC   C23 3633   4.071   6.588   5.425 -0.0176 -1.2206  0.2229
   27DOPC   H3R 3634   3.975   6.586   5.370  1.5960  2.0653 -3.1082
   27DOPC   H3S 3635   4.076   6.493   5.482  0.8461 -2.0720 -1.2102
   27DOPC   C24 3636   4.177   6.594   5.310 -0.7891 -0.2250 -0.2928
   27DOPC   H4R 3637   4.280   6.585   5.351 -0.5817  2.3560 -0.0803
   27DOPC   H4S 3638   4.171   6.690   5.254  1.5423  0.2100  0.1195
   27DOPC   C25 3639   4.154   6.485   5.204 -0.0880 -0.3760  0.3288
   27DOPC   H5R 3640   4.059   6.507   5.150 -1.2077  0.6353  2.5943
   27DOPC   H5S 3641   4.152   6.386   5.253  1.0813 -0.6043 -0.0621
   27DOPC   C26 3642   4.272   6.460   5.113 -0.2565  0.2367  0.0304
   27DOPC   H6R 3643   4.366   6.435   5.167 -0.1047  1.4778  0.3800
   27DOPC   H6S 3644   4.292   6.556   5.061  0.7451 -0.3466 -0.6834
   27DOPC   C27 3645   4.226   6.365   5.000  0.4752 -0.2211  0.0467
   27DOPC   H7R 3646   4.145   6.428   4.958 -0.1369  1.6246  3.5795
   27DOPC   H7S 3647   4.174   6.276   5.042  0.4054 -0.8946 -1.3987
   27DOPC   C28 3648   4.334   6.327   4.895  0.2015  0.8567 -0.6033
   27DOPC   H8R 3649   4.318   6.228   4.846  2.5879 -0.9620  1.9371
   27DOPC   H8S 3650   4.420   6.311   4.963 -0.4996  0.8919  0.3158
   27DOPC   C29 3651   4.371   6.441   4.804  1.1231  0.8543  0.3073
   27DOPC   H9R 3652   4.423   6.528   4.845  0.2642  1.3092  0.4628
   27DOPC  C210 3653   4.348   6.443   4.675  0.3959  0.2175  0.0096
   27DOPC  H10R 3654   4.367   6.534   4.615  0.8568  1.2198  1.6092
   27DOPC  C211 3655   4.283   6.333   4.594 -0.1359 -0.5356 -0.6720
   27DOPC  H11R 3656   4.289   6.238   4.652 -1.0803 -0.7203 -0.8535
   27DOPC  H11S 3657   4.318   6.322   4.489  1.8846  0.4560 -0.1496
   27DOPC  C212 3658   4.131   6.347   4.570  0.0679  0.3475  0.2983
   27DOPC  H12R 3659   4.073   6.358   4.664  0.0840 -0.2516  0.3795
   27DOPC  H12S 3660   4.091   6.259   4.516 -3.1229  2.6409 -1.3879
   27DOPC  C213 3661   4.099   6.459   4.470  0.0306 -0.2604 -0.0946
   27DOPC  H13R 3662   4.141   6.558   4.501  1.4903 -0.3960 -1.4918
   27DOPC  H13S 3663   3.989   6.466   4.485 -0.1030  1.4402 -1.4916
   27DOPC  C214 3664   4.149   6.442   4.328  0.4133 -0.3048  0.2670
   27DOPC  H14R 3665   4.097   6.360   4.275 -0.9812  1.0469 -0.5390
   27DOPC  H14S 3666   4.259   6.428   4.323  0.1993 -2.0001 -0.0897
   27DOPC  C215 3667   4.121   6.570   4.244 -0.5766  0.2098 -0.9098
   27DOPC  H15R 3668   4.160   6.655   4.305  0.5681 -2.5057  2.5077
   27DOPC  H15S 3669   4.012   6.587   4.252 -0.7383 -1.2302  0.5891
   27DOPC  C216 3670   4.179   6.568   4.106  0.0324  0.1644 -0.0416
   27DOPC  H16R 3671   4.102   6.504   4.057 -0.2508 -0.8869  1.7005
   27DOPC  H16S 3672   4.278   6.517   4.101  0.8058  1.7056 -1.4841
   27DOPC  C217 3673   4.173   6.705   4.033  1.4381  0.2562 -0.0385
   27DOPC  H17R 3674   4.246   6.772   4.084 -0.0183  0.2858  2.1697
   27DOPC  H17S 3675   4.077   6.761   4.049  2.1988  2.2321 -1.9241
   27DOPC  C218 3676   4.201   6.702   3.879 -0.5192 -0.6763  0.0871
   27DOPC  H18R 3677   4.107   6.680   3.823  0.3127 -1.8651 -0.9064
   27DOPC  H18S 3678   4.273   6.619   3.863  1.3390  0.8213  0.4599
   27DOPC  H18T 3679   4.252   6.788   3.831  0.7834 -0.1601  2.2608
   27DOPC   C33 3680   4.212   6.132   5.413 -0.7492  0.3956 -0.5703
   27DOPC   H3X 3681   4.119   6.188   5.390 -0.6022  1.2094  0.7068
   27DOPC   H3Y 3682   4.168   6.049   5.472  0.1096  0.6442  0.4436
   27DOPC   C34 3683   4.279   6.089   5.284  0.4137  0.5262 -0.7995
   27DOPC   H4X 3684   4.380   6.047   5.304  0.6422  1.0697 -0.7831
   27DOPC   H4Y 3685   4.298   6.177   5.219  1.1295  0.9101 -0.0870
   27DOPC   C35 3686   4.191   5.997   5.205  0.3364  0.5345  1.3339
   27DOPC   H5X 3687   4.089   6.040   5.199 -0.3700 -0.9972  1.8846
   27DOPC   H5Y 3688   4.184   5.906   5.267  1.8174 -1.6858 -1.5143
   27DOPC   C36 3689   4.243   5.962   5.063  0.7762 -0.7114  0.2020
   27DOPC   H6X 3690   4.208   6.051   5.006  1.2080  0.4751  1.6845
   27DOPC   H6Y 3691   4.354   5.959   5.061  0.7829 -0.1367 -0.6338
   27DOPC   C37 3692   4.204   5.831   5.009  0.0733  0.9840 -0.4887
   27DOPC   H7X 3693   4.261   5.803   4.918 -0.6909 -1.5484 -0.2900
   27DOPC   H7Y 3694   4.216   5.751   5.085 -0.5567  1.8997  0.5866
   27DOPC   C38 3695   4.052   5.819   4.979 -0.1944 -0.7032 -0.3481
   27DOPC   H8X 3696   4.000   5.854   5.070  0.7730  2.0553 -0.7615
   27DOPC   H8Y 3697   4.037   5.709   4.976  0.2875 -0.8615  1.8318
   27DOPC   C39 3698   4.014   5.876   4.846 -0.3659 -1.3697 -0.2641
   27DOPC   H9X 3699   4.028   5.985   4.850 -2.9259 -0.9858  0.2771
   27DOPC  C310 3700   3.976   5.811   4.743  0.4073  0.2047 -0.0505
   27DOPC  H10X 3701   3.971   5.863   4.646 -0.5723  1.7376  0.7842
   27DOPC  C311 3702   3.959   5.664   4.718 -1.1294  0.7724 -0.1620
   27DOPC  H11X 3703   3.849   5.654   4.703 -1.4255 -2.7294  2.9593
   27DOPC  H11Y 3704   3.987   5.604   4.807 -1.6412  1.3150  0.3803
   27DOPC  C312 3705   4.020   5.618   4.588  0.0199  0.4028 -0.3494
   27DOPC  H12X 3706   4.012   5.683   4.498 -0.9187  0.0344 -0.5406
   27DOPC  H12Y 3707   3.965   5.525   4.562 -0.9493  0.5859  0.9983
   27DOPC  C313 3708   4.167   5.576   4.604 -0.1489  0.8948 -0.8850
   27DOPC  H13X 3709   4.241   5.656   4.623  0.6805 -0.3663  1.5802
   27DOPC  H13Y 3710   4.180   5.516   4.697 -1.1850  0.5276 -0.9561
   27DOPC  C314 3711   4.232   5.508   4.480  0.2099 -0.5018 -0.4677
   27DOPC  H14X 3712   4.161   5.426   4.458  1.5702 -2.0579  0.7040
   27DOPC  H14Y 3713   4.239   5.570   4.388  0.3996 -0.1764 -0.2383
   27DOPC  C315 3714   4.369   5.447   4.508 -0.4391 -0.0474  0.1871
   27DOPC  H15X 3715   4.369   5.378   4.595  1.5852 -0.3212  0.0259
   27DOPC  H15Y 3716   4.435   5.527   4.548 -0.5913 -0.2925  0.9306
   27DOPC  C316 3717   4.442   5.377   4.389  1.1101 -0.0560 -0.0518
   27DOPC  H16X 3718   4.508   5.299   4.432  1.5735 -0.0750 -0.7807
   27DOPC  H16Y 3719   4.371   5.321   4.325  2.3560 -0.7758 -0.8351
   27DOPC  C317 3720   4.523   5.486   4.313  0.2016 -0.4160 -0.2530
   27DOPC  H17X 3721   4.546   5.572   4.379  3.0022 -0.2128 -1.3491
   27DOPC  H17Y 3722   4.622   5.442   4.284  0.7518  0.7726 -0.2418
   27DOPC  C318 3723   4.450   5.532   4.187  0.2283  0.5780  0.3073
   27DOPC  H18X 3724   4.447   5.454   4.107  2.2761  0.4440  0.3013
   27DOPC  H18Y 3725   4.346   5.566   4.206 -0.1401 -0.5675  0.4079
   27DOPC  H18Z 3726   4.504   5.622   4.151  0.1617  0.7269  0.5759
   28DOPC     N 3727   6.539   3.111   6.376 -0.4653  0.2396  0.1217
   28DOPC   C12 3728   6.391   3.155   6.381 -0.0066 -0.4988 -0.4396
   28DOPC  H12A 3729   6.388   3.245   6.321  1.9753 -0.0602  0.0420
   28DOPC  H12B 3730   6.357   3.203   6.471 -0.2534  1.8498 -1.6895
   28DOPC   C13 3731   6.561   3.026   6.495 -0.3206  1.0075 -0.1903
   28DOPC  H13A 3732   6.549   3.073   6.592  0.8886  0.8739  0.0391
   28DOPC  H13B 3733   6.487   2.947   6.501  0.5262  0.2836  1.9193
   28DOPC  H13C 3734   6.662   2.990   6.506 -0.4565  0.7648  0.3383
   28DOPC   C14 3735   6.627   3.231   6.381  0.1008 -0.8237  0.3126
   28DOPC  H14A 3736   6.604   3.297   6.463 -0.0288  0.6941 -0.8893
   28DOPC  H14B 3737   6.728   3.196   6.394 -0.2529 -2.1967 -0.3930
   28DOPC  H14C 3738   6.632   3.274   6.282 -1.1161 -1.9526 -0.2836
   28DOPC   C15 3739   6.575   3.043   6.254 -0.4664  1.0153  0.1935
   28DOPC  H15A 3740   6.577   3.107   6.167  3.5161  0.3531 -0.3903
   28DOPC  H15B 3741   6.508   2.960   6.235 -0.5966  1.2444 -0.3809
   28DOPC  H15C 3742   6.674   3.002   6.257 -0.4554  0.9201  4.3703
   28DOPC   C11 3743   6.274   3.054   6.334  0.2780 -0.1606  0.0020
   28DOPC  H11A 3744   6.303   2.954   6.373  0.3415 -0.6181 -1.1570
   28DOPC  H11B 3745   6.174   3.091   6.364  0.9103  1.6487 -0.0259
   28DOPC     P 3746   6.200   3.143   6.100 -0.0611  0.2672  0.1103
   28DOPC   O13 3747   6.263   3.141   5.964  0.1593  0.0256  0.7351
   28DOPC   O14 3748   6.166   3.270   6.168  0.0583 -0.0584  0.0175
   28DOPC   O12 3749   6.281   3.045   6.191  0.0534 -0.0479  0.2303
   28DOPC   O11 3750   6.069   3.059   6.093  0.0297  0.6128 -0.0610
   28DOPC    C1 3751   6.045   2.939   6.014  1.0386  0.2290  0.0239
   28DOPC    HA 3752   6.001   2.865   6.083  0.3095  0.0793 -0.5800
   28DOPC    HB 3753   6.141   2.890   5.987  0.8753 -0.6076  0.9330
   28DOPC    C2 3754   5.951   2.949   5.891  0.3317  0.0749 -0.1253
   28DOPC    HS 3755   5.944   2.851   5.839 -2.0910 -0.3101  0.7816
   28DOPC   O21 3756   5.992   3.056   5.809 -0.9240  0.4545 -0.1012
   28DOPC   C21 3757   6.105   3.022   5.738  0.1959  0.4977 -0.4654
   28DOPC   O22 3758   6.161   2.916   5.738  0.2006  0.0418 -0.0226
   28DOPC   C22 3759   6.143   3.148   5.645 -0.1611  0.4823 -0.8089
   28DOPC   H2R 3760   6.137   3.239   5.708  1.7565  0.4913 -0.5742
   28DOPC   H2S 3761   6.070   3.143   5.561 -1.8938 -0.5859  0.6669
   28DOPC    C3 3762   5.804   2.980   5.935 -0.0687 -0.2081  0.3486
   28DOPC    HX 3763   5.791   3.071   5.997 -0.2883 -0.6282  0.9363
   28DOPC    HY 3764   5.770   2.894   5.997  3.0474 -1.9596 -0.1828
   28DOPC   O31 3765   5.717   2.989   5.814  0.4669  0.0383  0.3512
   28DOPC   C31 3766   5.705   3.112   5.764 -0.8551 -0.9752 -0.3987
   28DOPC   O32 3767   5.752   3.214   5.821 -0.2704 -0.3748 -0.4428
   28DOPC   C32 3768   5.627   3.116   5.630  0.2176  0.0966 -0.1000
   28DOPC   H2X 3769   5.686   3.044   5.570 -0.4686 -2.0874  1.6856
   28DOPC   H2Y 3770   5.527   3.068   5.635  0.2441  0.1037  0.7610
   28DOPC   C23 3771   6.288   3.134   5.599 -1.0047  0.7528 -0.1195
   28DOPC   H3R 3772   6.309   3.029   5.572 -0.0021  0.9194 -0.0306
   28DOPC   H3S 3773   6.348   3.176   5.682  1.6384  1.0915 -2.0867
   28DOPC   C24 3774   6.305   3.229   5.475  0.0110 -0.1655 -0.5668
   28DOPC   H4R 3775   6.307   3.336   5.505 -1.6081 -0.4988  0.8733
   28DOPC   H4S 3776   6.210   3.229   5.419 -1.7540  0.3294  2.2119
   28DOPC   C25 3777   6.430   3.210   5.391 -0.6563  0.4020 -0.2570
   28DOPC   H5R 3778   6.442   3.100   5.377 -0.0399  0.1866  1.7362
   28DOPC   H5S 3779   6.519   3.245   5.447  0.1027  0.2805 -1.3465
   28DOPC   C26 3780   6.427   3.283   5.247 -0.4584  0.5036 -0.3220
   28DOPC   H6R 3781   6.495   3.370   5.259  1.0404 -0.5788 -0.7664
   28DOPC   H6S 3782   6.322   3.313   5.225 -1.0031 -0.8622  0.2965
   28DOPC   C27 3783   6.503   3.195   5.144 -0.0835 -0.1581 -0.0686
   28DOPC   H7R 3784   6.439   3.105   5.129 -0.3585 -0.9110  4.2793
   28DOPC   H7S 3785   6.595   3.165   5.199 -1.3860  0.2340  2.4935
   28DOPC   C28 3786   6.543   3.247   5.011 -0.7184 -0.0290  0.3618
   28DOPC   H8R 3787   6.614   3.177   4.961  0.6550  0.9181  0.9270
   28DOPC   H8S 3788   6.612   3.332   5.028 -1.3539  0.2409  1.6747
   28DOPC   C29 3789   6.429   3.306   4.927 -0.2874 -0.5072 -0.5266
   28DOPC   H9R 3790   6.373   3.394   4.963  0.3616  0.8958 -2.7575
   28DOPC  C210 3791   6.402   3.269   4.798  0.4130 -0.0116 -0.9901
   28DOPC  H10R 3792   6.322   3.328   4.751 -0.9077 -0.6933  0.3125
   28DOPC  C211 3793   6.460   3.160   4.713 -0.6016 -0.3997 -0.1269
   28DOPC  H11R 3794   6.385   3.101   4.657  1.9625 -3.1828 -0.9049
   28DOPC  H11S 3795   6.519   3.088   4.774 -1.8902 -0.1579  1.4817
   28DOPC  C212 3796   6.543   3.220   4.594 -0.2692 -0.5632  0.4357
   28DOPC  H12R 3797   6.620   3.291   4.630 -1.9812  1.1118  0.9330
   28DOPC  H12S 3798   6.482   3.276   4.521 -1.2742 -1.3375  0.6604
   28DOPC  C213 3799   6.614   3.114   4.502  0.6294  0.5113 -0.6056
   28DOPC  H13R 3800   6.534   3.043   4.472  1.6081 -0.8274 -0.1762
   28DOPC  H13S 3801   6.688   3.058   4.563  0.8756  0.4462 -0.9639
   28DOPC  C214 3802   6.681   3.171   4.376 -0.2713  0.3315  0.2952
   28DOPC  H14R 3803   6.758   3.245   4.405  3.0332 -1.8962 -2.1474
   28DOPC  H14S 3804   6.606   3.213   4.305 -0.9096 -0.4924  0.4690
   28DOPC  C215 3805   6.760   3.069   4.302  0.7612  0.6243  0.2543
   28DOPC  H15R 3806   6.696   2.983   4.276  0.3555  1.1711 -0.6189
   28DOPC  H15S 3807   6.839   3.026   4.368 -1.5246 -2.6584  1.0830
   28DOPC  C216 3808   6.847   3.134   4.187 -0.2146  0.1726 -0.1086
   28DOPC  H16R 3809   6.914   3.058   4.141  1.7739  1.0965  1.1183
   28DOPC  H16S 3810   6.913   3.195   4.252  0.5568  0.3046 -0.9777
   28DOPC  C217 3811   6.780   3.218   4.083 -0.2005  0.4837 -0.0673
   28DOPC  H17R 3812   6.728   3.308   4.120 -0.5375 -0.2971  1.4319
   28DOPC  H17S 3813   6.708   3.147   4.035  1.8474 -0.6706 -1.5763
   28DOPC  C218 3814   6.888   3.247   3.967  0.1890 -0.5352  0.8964
   28DOPC  H18R 3815   6.842   3.308   3.887 -1.2690 -1.0674  1.2974
   28DOPC  H18S 3816   6.933   3.153   3.929  0.0973 -0.3446  0.3156
   28DOPC  H18T 3817   6.968   3.318   3.998  0.0206  1.3212 -2.4917
   28DOPC   C33 3818   5.609   3.256   5.564  0.3692  0.1218 -0.0743
   28DOPC   H3X 3819   5.624   3.325   5.649 -0.4157 -0.1964  0.3298
   28DOPC   H3Y 3820   5.508   3.261   5.518 -0.2690 -0.1340  1.2749
   28DOPC   C34 3821   5.721   3.291   5.461  0.3758  0.2001 -0.1197
   28DOPC   H4X 3822   5.740   3.193   5.412 -0.0108 -0.8253  1.7084
   28DOPC   H4Y 3823   5.810   3.321   5.520 -0.3842  2.6469 -0.1032
   28DOPC   C35 3824   5.667   3.399   5.358 -0.1044  0.7220 -0.0010
   28DOPC   H5X 3825   5.750   3.446   5.301  0.1051 -1.6371 -1.8130
   28DOPC   H5Y 3826   5.618   3.477   5.420 -2.7162 -1.2434  0.5873
   28DOPC   C36 3827   5.569   3.339   5.256  0.5757 -0.1698 -0.2966
   28DOPC   H6X 3828   5.620   3.256   5.205  0.9902  0.2312 -0.5401
   28DOPC   H6Y 3829   5.475   3.309   5.309 -0.7398  2.1148 -1.1754
   28DOPC   C37 3830   5.528   3.433   5.139 -0.5591 -0.0344 -0.2094
   28DOPC   H7X 3831   5.468   3.522   5.168 -1.3297 -0.7734  0.5203
   28DOPC   H7Y 3832   5.623   3.481   5.107 -1.0113 -0.1618 -1.7900
   28DOPC   C38 3833   5.458   3.353   5.028  0.2233  0.4313 -0.0782
   28DOPC   H8X 3834   5.356   3.324   5.063 -0.0262  3.5797  2.2487
   28DOPC   H8Y 3835   5.519   3.265   4.998  0.6708  0.9915 -0.8645
   28DOPC   C39 3836   5.448   3.437   4.906 -0.6030 -0.7836  0.0365
   28DOPC   H9X 3837   5.382   3.523   4.924  0.4367  0.4807 -1.8200
   28DOPC  C310 3838   5.523   3.431   4.787  1.0784 -0.5383  0.0589
   28DOPC  H10X 3839   5.502   3.518   4.722  0.0806  0.0406  1.1212
   28DOPC  C311 3840   5.617   3.329   4.734  0.5914  1.2525 -0.3437
   28DOPC  H11X 3841   5.557   3.279   4.656 -0.2308  0.9195  0.4778
   28DOPC  H11Y 3842   5.636   3.249   4.809  0.3388 -0.1628 -1.7430
   28DOPC  C312 3843   5.739   3.386   4.675  0.3196  0.4025 -0.0177
   28DOPC  H12X 3844   5.800   3.428   4.758 -0.1434 -2.8421  2.1139
   28DOPC  H12Y 3845   5.708   3.475   4.616 -0.6414 -0.5954 -1.0593
   28DOPC  C313 3846   5.812   3.275   4.594  0.1481 -0.7950  0.1463
   28DOPC  H13X 3847   5.814   3.186   4.662 -0.0544  1.0800  2.7770
   28DOPC  H13Y 3848   5.750   3.257   4.504  1.4801 -0.6519 -0.8261
   28DOPC  C314 3849   5.952   3.304   4.546 -0.9930  0.2015  0.2574
   28DOPC  H14X 3850   5.960   3.399   4.489 -1.8519  0.5306  0.6626
   28DOPC  H14Y 3851   6.010   3.316   4.641 -1.0135 -0.7931  0.4040
   28DOPC  C315 3852   6.012   3.182   4.473  0.2266 -0.8627  0.0168
   28DOPC  H15X 3853   5.971   3.093   4.524  1.0224 -0.0027  2.2709
   28DOPC  H15Y 3854   6.122   3.185   4.489 -0.0108 -0.1794  1.7930
   28DOPC  C316 3855   5.982   3.175   4.319 -0.6075 -0.5471  0.3150
   28DOPC  H16X 3856   6.006   3.071   4.289  2.3053 -0.2717  1.3890
   28DOPC  H16Y 3857   5.877   3.210   4.314 -0.6098  0.0337  3.0340
   28DOPC  C317 3858   6.078   3.265   4.243  0.1736 -0.3457 -0.5198
   28DOPC  H17X 3859   6.044   3.231   4.143 -1.4325  0.7609 -0.3993
   28DOPC  H17Y 3860   6.041   3.369   4.255  0.1699 -0.1371 -2.0672
   28DOPC  C318 3861   6.232   3.246   4.268  0.1371 -0.0052  0.3103
   28DOPC  H18X 3862   6.263   3.144   4.236  1.4181  0.1418  1.0117
   28DOPC  H18Y 3863   6.288   3.311   4.199  0.4415 -0.3873  0.1908
   28DOPC  H18Z 3864   6.269   3.272   4.369  1.4253  0.3900 -0.2496
   29DOPC     N 3865   4.863   3.867   6.418 -0.2897 -0.2068  0.0323
   29DOPC   C12 3866   4.872   3.861   6.261  0.0743  0.0969  0.3300
   29DOPC  H12A 3867   4.966   3.904   6.230 -0.1206  1.3002  1.3396
   29DOPC  H12B 3868   4.806   3.938   6.225  1.1653  0.8346 -0.1464
   29DOPC   C13 3869   4.723   3.844   6.469  0.1295 -0.4378 -0.8965
   29DOPC  H13A 3870   4.713   3.829   6.575 -0.4672  0.2135 -0.8515
   29DOPC  H13B 3871   4.668   3.933   6.443  0.9184  0.0114 -1.0764
   29DOPC  H13C 3872   4.683   3.755   6.421  1.8784 -2.6589  1.4760
   29DOPC   C14 3873   4.908   4.011   6.443 -0.0548 -0.4048  0.2455
   29DOPC  H14A 3874   4.910   4.045   6.546  1.6995 -0.8742  0.3993
   29DOPC  H14B 3875   5.009   4.021   6.408  0.2538 -0.4360  1.0881
   29DOPC  H14C 3876   4.834   4.071   6.394  0.5407  0.4054  0.3227
   29DOPC   C15 3877   4.957   3.779   6.470  0.5271  0.1428 -0.8431
   29DOPC  H15A 3878   4.919   3.679   6.455  1.5620 -0.6026  1.2023
   29DOPC  H15B 3879   4.969   3.801   6.575  1.8882 -1.0128 -0.7279
   29DOPC  H15C 3880   5.054   3.778   6.423 -0.7572 -1.3293 -3.7799
   29DOPC   C11 3881   4.839   3.726   6.196  0.6970  0.0750 -0.5271
   29DOPC  H11A 3882   4.735   3.698   6.221  0.9462  0.6037  1.2357
   29DOPC  H11B 3883   4.830   3.736   6.085 -1.1316  1.6786 -0.2823
   29DOPC     P 3884   4.877   3.475   6.184 -0.1021 -0.0513 -0.4811
   29DOPC   O13 3885   4.743   3.447   6.245  0.3559  0.1653  0.2458
   29DOPC   O14 3886   4.984   3.375   6.216  0.3779 -0.2467 -0.1784
   29DOPC   O12 3887   4.913   3.612   6.241 -0.4815 -0.4454  0.7074
   29DOPC   O11 3888   4.885   3.503   6.031  0.8297 -0.1446  0.0966
   29DOPC    C1 3889   5.000   3.556   5.970  0.4051  0.1503 -0.0707
   29DOPC    HA 3890   5.090   3.522   6.025  1.1179 -0.0997 -1.3347
   29DOPC    HB 3891   5.006   3.667   5.973 -2.3913  0.5092 -2.8523
   29DOPC    C2 3892   5.025   3.500   5.820  0.2209 -0.8306  0.2108
   29DOPC    HS 3893   5.117   3.552   5.786  0.3956 -0.0705  1.7575
   29DOPC   O21 3894   4.905   3.522   5.737  0.5819 -0.4500  0.3360
   29DOPC   C21 3895   4.898   3.650   5.692  0.0597 -0.2797  0.5732
   29DOPC   O22 3896   4.975   3.738   5.731  0.2731  0.4712  0.3451
   29DOPC   C22 3897   4.784   3.661   5.590  0.5072 -0.2501 -0.0860
   29DOPC   H2R 3898   4.772   3.770   5.570  0.5314 -0.4644 -1.3691
   29DOPC   H2S 3899   4.686   3.620   5.624 -0.6267  0.5494 -2.1727
   29DOPC    C3 3900   5.063   3.349   5.813 -0.0410  0.4502 -0.8022
   29DOPC    HX 3901   4.961   3.306   5.813 -0.0679  0.4730  0.6846
   29DOPC    HY 3902   5.114   3.321   5.908 -0.2645 -0.4335 -0.9329
   29DOPC   O31 3903   5.140   3.316   5.697  0.1530 -0.2012  0.2231
   29DOPC   C31 3904   5.089   3.230   5.620 -0.2890  0.1667  0.7102
   29DOPC   O32 3905   4.983   3.173   5.631  0.7744 -0.3970 -0.0445
   29DOPC   C32 3906   5.188   3.232   5.498  0.0906  0.3950 -0.1126
   29DOPC   H2X 3907   5.201   3.338   5.467 -1.2866  0.5416 -0.2724
   29DOPC   H2Y 3908   5.282   3.190   5.539  0.7320 -0.2451 -2.0809
   29DOPC   C23 3909   4.821   3.597   5.449 -0.1581 -0.1284 -0.0851
   29DOPC   H3R 3910   4.904   3.654   5.403  0.0874  0.5640  1.1548
   29DOPC   H3S 3911   4.741   3.617   5.375 -0.3512 -1.2296 -0.1958
   29DOPC   C24 3912   4.830   3.449   5.445  0.6159  0.1826  0.6202
   29DOPC   H4R 3913   4.737   3.403   5.483  1.3204 -0.1727  1.9824
   29DOPC   H4S 3914   4.914   3.409   5.506 -0.3756  1.3374  2.8662
   29DOPC   C25 3915   4.845   3.408   5.303 -0.4367  0.1559  0.7497
   29DOPC   H5R 3916   4.778   3.474   5.244 -0.7004  2.2032  3.1549
   29DOPC   H5S 3917   4.815   3.303   5.287 -0.4045  0.2510  0.0395
   29DOPC   C26 3918   4.989   3.426   5.239  0.0101  0.7150  0.1745
   29DOPC   H6R 3919   5.048   3.332   5.241 -2.2863 -0.7950  0.6829
   29DOPC   H6S 3920   5.033   3.509   5.298 -0.1345 -0.0310  1.3677
   29DOPC   C27 3921   4.982   3.479   5.095  0.0335  0.0606 -0.2436
   29DOPC   H7R 3922   4.951   3.586   5.087  0.2706  0.0356 -1.8055
   29DOPC   H7S 3923   4.896   3.427   5.048 -0.1807 -1.3251  1.5796
   29DOPC   C28 3924   5.110   3.464   5.016 -0.4317 -0.0417  0.1425
   29DOPC   H8R 3925   5.153   3.362   5.002  1.3964  0.8115 -0.9942
   29DOPC   H8S 3926   5.192   3.504   5.080 -1.2952  0.9141  0.6863
   29DOPC   C29 3927   5.108   3.528   4.878  0.7336 -0.0656  0.1800
   29DOPC   H9R 3928   5.030   3.481   4.817  1.0900 -3.0789  1.8620
   29DOPC  C210 3929   5.163   3.644   4.837  0.0220 -0.1359  0.0914
   29DOPC  H10R 3930   5.166   3.667   4.729 -0.4600 -0.1879  0.0624
   29DOPC  C211 3931   5.229   3.747   4.927  0.1831  0.2435  0.0561
   29DOPC  H11R 3932   5.329   3.760   4.881  0.2729 -1.0216 -0.1365
   29DOPC  H11S 3933   5.253   3.717   5.031  0.7797  2.7864  0.7278
   29DOPC  C212 3934   5.158   3.885   4.935  0.6019 -0.6871  0.5486
   29DOPC  H12R 3935   5.205   3.940   5.020 -0.3588 -0.3453  0.8686
   29DOPC  H12S 3936   5.050   3.884   4.960  0.6436 -0.5411  0.7413
   29DOPC  C213 3937   5.179   3.963   4.806 -0.1053  0.3763 -0.3632
   29DOPC  H13R 3938   5.136   3.907   4.720 -2.1939  1.0802  0.1738
   29DOPC  H13S 3939   5.288   3.965   4.784  0.4728 -4.3157  0.8873
   29DOPC  C214 3940   5.115   4.104   4.804  0.1452  0.0330 -0.5710
   29DOPC  H14R 3941   5.154   4.164   4.889 -0.0610  1.7559 -1.6710
   29DOPC  H14S 3942   5.006   4.102   4.825  0.2783 -1.3484  0.1512
   29DOPC  C215 3943   5.136   4.185   4.679  0.2929  0.3663  0.2954
   29DOPC  H15R 3944   5.076   4.137   4.599 -1.8899  0.2166  1.9071
   29DOPC  H15S 3945   5.242   4.186   4.649 -0.0644  0.1501 -1.0233
   29DOPC  C216 3946   5.093   4.337   4.692  0.3636 -0.3221 -0.4169
   29DOPC  H16R 3947   5.171   4.386   4.754  0.2606  0.9246 -1.2446
   29DOPC  H16S 3948   4.992   4.325   4.736  0.0775  0.4013 -0.8656
   29DOPC  C217 3949   5.082   4.410   4.557 -0.4566  0.3906  0.0774
   29DOPC  H17R 3950   5.026   4.506   4.563  2.4061  2.1739  0.0345
   29DOPC  H17S 3951   5.023   4.351   4.484  2.4253 -1.7851 -0.6801
   29DOPC  C218 3952   5.217   4.452   4.495 -0.2951 -0.0625  0.1402
   29DOPC  H18R 3953   5.286   4.483   4.575  1.0699 -2.3766 -0.0615
   29DOPC  H18S 3954   5.204   4.529   4.415  1.6941 -0.0409 -0.2153
   29DOPC  H18T 3955   5.257   4.363   4.443  0.1276  1.2796 -1.9847
   29DOPC   C33 3956   5.140   3.137   5.388 -0.6435 -0.4784 -0.5011
   29DOPC   H3X 3957   5.043   3.167   5.342 -1.5641 -1.2417  0.8615
   29DOPC   H3Y 3958   5.123   3.036   5.429 -0.5867 -0.9334 -1.5785
   29DOPC   C34 3959   5.244   3.127   5.277 -0.2938  0.0086 -0.3273
   29DOPC   H4X 3960   5.324   3.054   5.302 -0.4445  0.8901  3.2537
   29DOPC   H4Y 3961   5.298   3.222   5.256  1.5112 -1.2087 -1.5517
   29DOPC   C35 3962   5.198   3.066   5.144 -0.0633 -0.0362 -0.2848
   29DOPC   H5X 3963   5.278   3.050   5.070 -1.5435 -0.6450 -1.8180
   29DOPC   H5Y 3964   5.136   3.146   5.098  0.6561  0.7494  0.0821
   29DOPC   C36 3965   5.122   2.936   5.156  0.4042 -0.8370 -1.0601
   29DOPC   H6X 3966   5.170   2.849   5.205 -0.2284 -0.1077  0.9603
   29DOPC   H6Y 3967   5.031   2.953   5.219  2.0410  2.1986  0.7161
   29DOPC   C37 3968   5.083   2.885   5.017 -0.5512 -0.0677  0.6687
   29DOPC   H7X 3969   5.012   2.968   4.996  2.4424  2.4748 -0.0222
   29DOPC   H7Y 3970   5.174   2.906   4.957  0.0425  3.2544  2.5366
   29DOPC   C38 3971   5.035   2.743   5.011  0.5781  0.4723  0.2470
   29DOPC   H8X 3972   4.942   2.742   5.071  0.3096 -1.7907 -0.1158
   29DOPC   H8Y 3973   5.112   2.675   5.054  1.5495  2.1192  1.2009
   29DOPC   C39 3974   4.987   2.704   4.879 -0.0402 -0.0694  0.3079
   29DOPC   H9X 3975   4.945   2.789   4.823 -2.6300 -1.8353 -0.6642
   29DOPC  C310 3976   4.991   2.587   4.816 -0.0398 -0.4778 -0.6350
   29DOPC  H10X 3977   4.957   2.589   4.711 -1.1875 -3.0592 -0.4077
   29DOPC  C311 3978   5.047   2.455   4.866  0.5418 -0.2120 -0.0008
   29DOPC  H11X 3979   5.089   2.463   4.968  1.4867  2.2105 -0.5206
   29DOPC  H11Y 3980   5.125   2.420   4.795  1.3226 -1.5039  1.4476
   29DOPC  C312 3981   4.944   2.336   4.860  0.1078  0.1102 -0.0473
   29DOPC  H12X 3982   4.848   2.380   4.895  0.5681  1.9047 -0.8944
   29DOPC  H12Y 3983   4.968   2.253   4.929  0.6769  0.9980  0.8599
   29DOPC  C313 3984   4.932   2.275   4.718  0.4836  0.0357  0.4379
   29DOPC  H13X 3985   4.903   2.357   4.649  0.6818 -1.0713 -1.0172
   29DOPC  H13Y 3986   5.034   2.239   4.692 -0.0095 -0.2403 -1.2559
   29DOPC  C314 3987   4.832   2.155   4.712  0.1708 -0.0769 -0.6467
   29DOPC  H14X 3988   4.843   2.108   4.612  2.1040  1.0772 -1.0180
   29DOPC  H14Y 3989   4.849   2.077   4.789  0.4157 -0.0686 -0.6928
   29DOPC  C315 3990   4.684   2.197   4.742 -0.2509  0.0450  0.2075
   29DOPC  H15X 3991   4.663   2.288   4.682  1.4138  1.1330  1.2132
   29DOPC  H15Y 3992   4.677   2.209   4.852 -0.1703  0.3158  0.1834
   29DOPC  C316 3993   4.585   2.087   4.706  0.0411 -0.3665 -0.0571
   29DOPC  H16X 3994   4.498   2.113   4.771  2.5082  1.2318  2.8172
   29DOPC  H16Y 3995   4.559   2.094   4.598  0.8335  1.9523 -0.1422
   29DOPC  C317 3996   4.619   1.939   4.739 -0.0438  0.3096  0.5182
   29DOPC  H17X 3997   4.723   1.918   4.705 -0.2925  0.7096 -0.5342
   29DOPC  H17Y 3998   4.631   1.920   4.847  2.3117  0.9397  0.4186
   29DOPC  C318 3999   4.522   1.844   4.677  0.4518 -0.1864 -0.1774
   29DOPC  H18X 4000   4.415   1.868   4.695  0.3627 -0.1597 -0.7000
   29DOPC  H18Y 4001   4.539   1.836   4.567  4.5285  0.4723  0.2389
   29DOPC  H18Z 4002   4.539   1.740   4.711 -1.0973 -0.8068 -1.1794
   30DOPC     N 4003   2.942   2.991   5.778  0.6264  0.0384  0.0967
   30DOPC   C12 4004   2.913   3.054   5.637  0.6382 -0.8014 -0.3535
   30DOPC  H12A 4005   2.886   3.158   5.640 -1.7360 -1.3795  0.4532
   30DOPC  H12B 4006   2.823   3.001   5.609  1.0233 -0.8873 -1.4812
   30DOPC   C13 4007   3.066   3.043   5.846  0.6198 -0.4904  0.3532
   30DOPC  H13A 4008   3.097   2.995   5.937  3.4533  0.8292  0.1948
   30DOPC  H13B 4009   3.147   3.025   5.777  1.7381 -1.1883  1.8086
   30DOPC  H13C 4010   3.062   3.146   5.877 -0.0614 -0.5673  0.5289
   30DOPC   C14 4011   2.962   2.842   5.752  0.1536 -0.3022 -0.1369
   30DOPC  H14A 4012   2.871   2.811   5.703  0.5159  0.8120 -1.5847
   30DOPC  H14B 4013   3.046   2.843   5.684  2.7998  0.4547  2.8717
   30DOPC  H14C 4014   2.989   2.784   5.839 -2.5901 -2.5588 -0.6664
   30DOPC   C15 4015   2.820   3.006   5.864 -0.3102  0.8811 -0.2242
   30DOPC  H15A 4016   2.834   2.950   5.956 -0.1156 -0.3070 -0.9577
   30DOPC  H15B 4017   2.727   2.973   5.821 -0.4198  0.5857  0.2336
   30DOPC  H15C 4018   2.805   3.110   5.888  0.4051  0.6373  1.5054
   30DOPC   C11 4019   3.023   3.045   5.525 -0.0823 -0.1215  0.6450
   30DOPC  H11A 4020   2.993   3.124   5.453  0.0712  1.2244  2.0139
   30DOPC  H11B 4021   3.116   3.085   5.570 -0.0429 -0.3681  0.7841
   30DOPC     P 4022   3.180   2.841   5.472  0.0450  0.0110  0.0529
   30DOPC   O13 4023   3.169   2.711   5.402  0.1084 -0.5627 -0.0686
   30DOPC   O14 4024   3.244   2.848   5.605 -0.2011 -0.0169 -0.4299
   30DOPC   O12 4025   3.042   2.917   5.472  0.4641 -0.2549 -0.5336
   30DOPC   O11 4026   3.260   2.933   5.380  0.0353 -0.4241 -0.3127
   30DOPC    C1 4027   3.191   2.990   5.268  0.2832  0.1252  0.3290
   30DOPC    HA 4028   3.169   3.098   5.277 -0.5081 -0.0458  0.5280
   30DOPC    HB 4029   3.093   2.942   5.248  0.6582 -1.1780  1.4863
   30DOPC    C2 4030   3.279   2.982   5.135 -0.6445  0.5141 -0.5511
   30DOPC    HS 4031   3.360   3.059   5.129 -2.8979  2.9640 -1.9180
   30DOPC   O21 4032   3.204   2.991   5.016  0.0109 -0.3109  0.4754
   30DOPC   C21 4033   3.137   3.102   4.993 -0.2240 -0.9387  0.4771
   30DOPC   O22 4034   3.133   3.204   5.062 -0.1626 -0.0256 -0.4018
   30DOPC   C22 4035   3.037   3.070   4.883 -0.2336  0.4175 -0.3539
   30DOPC   H2R 4036   2.938   3.042   4.924  0.7120 -1.7251  0.6462
   30DOPC   H2S 4037   3.075   2.978   4.832 -1.2193 -0.4093  0.3579
   30DOPC    C3 4038   3.349   2.841   5.125  0.1925 -0.3882 -0.0922
   30DOPC    HX 4039   3.265   2.774   5.099 -0.5803 -0.2969  1.9748
   30DOPC    HY 4040   3.387   2.816   5.226  1.0424 -0.5968 -0.4546
   30DOPC   O31 4041   3.456   2.836   5.027  0.9844 -0.1379  0.1105
   30DOPC   C31 4042   3.537   2.731   5.028 -0.4159 -0.3055 -0.0593
   30DOPC   O32 4043   3.522   2.628   5.088 -0.0141  0.5157 -1.0571
   30DOPC   C32 4044   3.657   2.748   4.933 -0.1763 -0.1541 -0.0275
   30DOPC   H2X 4045   3.620   2.781   4.834  0.2656  0.0666 -0.1259
   30DOPC   H2Y 4046   3.718   2.836   4.963 -3.0526  2.1704 -0.5340
   30DOPC   C23 4047   3.024   3.173   4.763  0.2413  0.3906 -0.0639
   30DOPC   H3R 4048   2.973   3.129   4.675  0.1561  1.0653 -0.3519
   30DOPC   H3S 4049   3.125   3.197   4.722  0.6492  2.1884  1.8016
   30DOPC   C24 4050   2.940   3.292   4.797 -0.2113 -0.0830 -0.5784
   30DOPC   H4R 4051   2.989   3.352   4.876 -2.3505  1.5761 -0.4235
   30DOPC   H4S 4052   2.838   3.265   4.829  0.2513 -0.8236  0.3208
   30DOPC   C25 4053   2.913   3.383   4.675 -0.2503  0.0375 -0.4803
   30DOPC   H5R 4054   2.890   3.333   4.579  1.9668 -1.1593 -0.4517
   30DOPC   H5S 4055   3.008   3.440   4.660 -0.6338  0.4111 -1.5437
   30DOPC   C26 4056   2.807   3.492   4.718 -0.1161  0.3157 -0.2051
   30DOPC   H6R 4057   2.860   3.588   4.734  1.2230 -0.3409 -0.5586
   30DOPC   H6S 4058   2.758   3.468   4.815 -0.1077  0.3870 -0.1828
   30DOPC   C27 4059   2.690   3.525   4.621  0.5461 -0.5216  1.4359
   30DOPC   H7R 4060   2.620   3.586   4.682  1.9362  0.1611  2.4168
   30DOPC   H7S 4061   2.645   3.428   4.590 -0.1126 -0.1871  1.3190
   30DOPC   C28 4062   2.718   3.619   4.495  0.0826 -0.7018  0.5597
   30DOPC   H8R 4063   2.624   3.643   4.440  1.1618  1.5180 -0.4472
   30DOPC   H8S 4064   2.779   3.563   4.421 -0.2639 -1.3489  0.7528
   30DOPC   C29 4065   2.801   3.741   4.544  0.3498  0.1589 -0.6204
   30DOPC   H9R 4066   2.769   3.787   4.639  2.4478  1.4745 -0.4806
   30DOPC  C210 4067   2.916   3.789   4.491  0.1434  0.0507  0.0222
   30DOPC  H10R 4068   2.980   3.851   4.556  2.3994  0.4107 -2.3851
   30DOPC  C211 4069   2.993   3.749   4.367 -0.1999 -0.1334 -0.4464
   30DOPC  H11R 4070   2.970   3.642   4.349  0.5501 -0.2318 -0.8338
   30DOPC  H11S 4071   3.099   3.773   4.387  0.3114  0.2981 -3.2473
   30DOPC  C212 4072   2.946   3.812   4.239  0.2075  0.2281 -0.0643
   30DOPC  H12R 4073   2.959   3.922   4.239 -1.4434  0.4978  1.9064
   30DOPC  H12S 4074   2.837   3.797   4.224  0.3221 -0.0578 -0.6196
   30DOPC  C213 4075   3.022   3.753   4.117 -0.5952  0.1471  0.0247
   30DOPC  H13R 4076   2.988   3.649   4.095 -0.0633 -0.7055  2.8526
   30DOPC  H13S 4077   3.131   3.751   4.135 -0.7962 -1.9759  1.3624
   30DOPC  C214 4078   2.989   3.847   4.003 -0.0438 -0.1791 -0.2451
   30DOPC  H14R 4079   3.030   3.948   4.024  2.1197 -1.2932  1.2199
   30DOPC  H14S 4080   2.881   3.837   3.980 -0.0271 -0.8848 -0.0248
   30DOPC  C215 4081   3.054   3.791   3.869  0.1255  0.1684  0.0201
   30DOPC  H15R 4082   3.017   3.845   3.779  0.9622  0.6989 -0.0212
   30DOPC  H15S 4083   3.020   3.686   3.865  1.3051 -0.3708  2.3050
   30DOPC  C216 4084   3.211   3.794   3.861  0.0626 -0.4627  0.9302
   30DOPC  H16R 4085   3.257   3.755   3.767 -1.8347  1.1972 -0.8027
   30DOPC  H16S 4086   3.237   3.733   3.950 -0.5933 -0.3280  1.2258
   30DOPC  C217 4087   3.264   3.934   3.868  0.1436  0.2140  0.3436
   30DOPC  H17R 4088   3.369   3.912   3.897  0.0597 -0.5091  0.1282
   30DOPC  H17S 4089   3.220   3.983   3.957  0.4527  0.0431  0.5937
   30DOPC  C218 4090   3.262   4.030   3.747 -0.5494 -0.2615 -0.7393
   30DOPC  H18R 4091   3.328   4.003   3.662  0.7773  0.0684  0.1575
   30DOPC  H18S 4092   3.288   4.135   3.773  0.2645 -0.6486  0.0422
   30DOPC  H18T 4093   3.160   4.037   3.704 -0.6145 -1.0131 -0.7143
   30DOPC   C33 4094   3.751   2.622   4.919 -0.7977  0.6233  0.0511
   30DOPC   H3X 4095   3.781   2.581   5.018 -0.7436  0.0877 -0.1899
   30DOPC   H3Y 4096   3.838   2.671   4.872  0.8662 -0.7749  1.5509
   30DOPC   C34 4097   3.687   2.519   4.824  0.0098 -0.6194  0.0222
   30DOPC   H4X 4098   3.649   2.578   4.738  1.1732 -0.5652 -0.4828
   30DOPC   H4Y 4099   3.602   2.468   4.874 -0.9194  0.2640 -0.6257
   30DOPC   C35 4100   3.782   2.416   4.777 -0.2096 -0.3566  0.0105
   30DOPC   H5X 4101   3.813   2.350   4.862 -0.3753 -0.7409 -0.2240
   30DOPC   H5Y 4102   3.874   2.465   4.739  0.2785 -1.6622 -0.5477
   30DOPC   C36 4103   3.719   2.334   4.669  0.5057 -0.3666 -0.1649
   30DOPC   H6X 4104   3.732   2.388   4.573  0.4000 -0.6733 -0.3529
   30DOPC   H6Y 4105   3.779   2.241   4.673  0.8872 -0.1284 -0.2551
   30DOPC   C37 4106   3.575   2.285   4.696 -0.1661 -0.0818 -0.3068
   30DOPC   H7X 4107   3.577   2.240   4.797  1.8255  1.5048  0.4394
   30DOPC   H7Y 4108   3.507   2.373   4.702 -1.4682 -1.0511 -0.4373
   30DOPC   C38 4109   3.526   2.177   4.594  0.7013 -0.1481  0.1241
   30DOPC   H8X 4110   3.441   2.118   4.636 -0.6812  1.1638 -0.7047
   30DOPC   H8Y 4111   3.603   2.098   4.585  0.9144 -0.1810  1.7823
   30DOPC   C39 4112   3.472   2.239   4.467 -0.3220  0.5387 -0.1413
   30DOPC   H9X 4113   3.368   2.274   4.470 -0.0528  1.7546 -2.5378
   30DOPC  C310 4114   3.551   2.248   4.357  0.2928 -0.1938  0.1462
   30DOPC  H10X 4115   3.525   2.301   4.265  0.1991  0.1686  0.3765
   30DOPC  C311 4116   3.694   2.209   4.341  0.3677  0.0089  0.0314
   30DOPC  H11X 4117   3.762   2.248   4.420  0.4064  1.2690 -0.5952
   30DOPC  H11Y 4118   3.736   2.267   4.255 -2.1254  1.6237 -0.1820
   30DOPC  C312 4119   3.727   2.058   4.317  0.1575 -0.0849 -0.1909
   30DOPC  H12X 4120   3.649   2.002   4.263  0.3841 -0.8021  0.2119
   30DOPC  H12Y 4121   3.746   2.017   4.419 -0.5041  1.3743  0.5628
   30DOPC  C313 4122   3.865   2.043   4.251 -1.0203 -0.0011  0.1551
   30DOPC  H13X 4123   3.866   2.123   4.174 -1.9829  1.5115  1.6457
   30DOPC  H13Y 4124   3.944   2.055   4.328 -1.4555 -0.5389  0.6965
   30DOPC  C314 4125   3.880   1.905   4.181 -0.2323 -0.0788  0.1990
   30DOPC  H14X 4126   3.896   1.823   4.254  1.8373  0.4443  0.4123
   30DOPC  H14Y 4127   3.789   1.888   4.120  1.0146  2.0934 -2.4614
   30DOPC  C315 4128   3.990   1.906   4.071 -0.4906 -0.1606 -0.5853
   30DOPC  H15X 4129   4.078   1.955   4.119 -1.1806  0.5308  0.0055
   30DOPC  H15Y 4130   3.961   1.966   3.982  0.4981 -1.2137 -1.6495
   30DOPC  C316 4131   4.027   1.763   4.033  0.2837  0.6226 -0.2461
   30DOPC  H16X 4132   4.070   1.712   4.122 -2.6577 -1.4835  0.1144
   30DOPC  H16Y 4133   3.936   1.706   4.004 -0.3005 -0.1857  2.7838
   30DOPC  C317 4134   4.130   1.751   3.918  0.0009 -0.2220 -0.1738
   30DOPC  H17X 4135   4.094   1.813   3.833 -0.3666 -0.7312 -0.3922
   30DOPC  H17Y 4136   4.223   1.796   3.959  0.4290  0.1888 -1.5428
   30DOPC  C318 4137   4.154   1.609   3.868  0.3511 -0.3823 -0.0745
   30DOPC  H18X 4138   4.176   1.606   3.759  1.4373  0.5359  0.1014
   30DOPC  H18Y 4139   4.241   1.565   3.922  1.1923 -0.9683 -1.8261
   30DOPC  H18Z 4140   4.062   1.552   3.893 -0.9371  2.0137  1.0288
   31DOPC     N 4141   4.666   4.094   5.693 -0.1052 -0.6016  0.0583
   31DOPC   C12 4142   4.613   4.148   5.556 -0.6097 -0.5942 -0.4178
   31DOPC  H12A 4143   4.507   4.166   5.567 -0.5749 -1.4730  1.9103
   31DOPC  H12B 4144   4.628   4.082   5.471  0.9997  2.2180 -2.5015
   31DOPC   C13 4145   4.636   4.177   5.809 -0.5048  0.5532  0.5488
   31DOPC  H13A 4146   4.530   4.186   5.827 -0.5373  0.0061  0.6300
   31DOPC  H13B 4147   4.683   4.138   5.898 -1.1729 -1.5097  0.0358
   31DOPC  H13C 4148   4.674   4.276   5.786  1.3415 -0.3905 -0.5747
   31DOPC   C14 4149   4.810   4.055   5.687  0.6848  0.2156 -0.3851
   31DOPC  H14A 4150   4.857   4.120   5.615  0.2938 -0.1753 -0.9989
   31DOPC  H14B 4151   4.867   4.062   5.779  1.4182  0.0849 -0.8242
   31DOPC  H14C 4152   4.827   3.953   5.657  0.4586  0.0174  0.1420
   31DOPC   C15 4153   4.594   3.961   5.706  0.2616 -0.4045  0.1720
   31DOPC  H15A 4154   4.598   3.909   5.611 -0.4313 -1.5429  0.7540
   31DOPC  H15B 4155   4.491   3.969   5.736 -0.2318 -2.0816 -0.9768
   31DOPC  H15C 4156   4.641   3.898   5.779  3.0046  0.1213 -0.9828
   31DOPC   C11 4157   4.678   4.280   5.507 -0.0322  0.6212 -0.3205
   31DOPC  H11A 4158   4.788   4.263   5.498 -0.3063 -0.5425 -1.8088
   31DOPC  H11B 4159   4.649   4.303   5.402  1.4456 -0.4242 -0.9983
   31DOPC     P 4160   4.513   4.463   5.603 -0.4802  0.4652  0.2141
   31DOPC   O13 4161   4.476   4.490   5.744  0.5224  0.8253  0.1830
   31DOPC   O14 4162   4.422   4.395   5.503 -0.0767 -0.1805 -0.6492
   31DOPC   O12 4163   4.653   4.387   5.597 -0.4564  0.2109 -0.0063
   31DOPC   O11 4164   4.551   4.598   5.532 -0.0299 -0.1593 -0.2759
   31DOPC    C1 4165   4.457   4.704   5.528 -0.0849 -0.1218  0.5746
   31DOPC    HA 4166   4.513   4.798   5.509  1.8067 -1.2479  0.3965
   31DOPC    HB 4167   4.400   4.711   5.623 -1.4679 -1.3155 -0.1305
   31DOPC    C2 4168   4.360   4.695   5.402 -0.2366 -0.4548  0.2251
   31DOPC    HS 4169   4.282   4.621   5.431 -1.9220  0.2486 -2.1697
   31DOPC   O21 4170   4.430   4.657   5.281  0.3756 -0.0590  0.2764
   31DOPC   C21 4171   4.367   4.572   5.207 -0.0749  0.0280 -0.2036
   31DOPC   O22 4172   4.260   4.517   5.241 -0.2017 -0.4279  0.7564
   31DOPC   C22 4173   4.451   4.530   5.082  0.0894  0.1786  0.0106
   31DOPC   H2R 4174   4.510   4.440   5.110 -1.3917 -1.5373 -2.1318
   31DOPC   H2S 4175   4.510   4.622   5.061  0.3718  0.2495  1.0566
   31DOPC    C3 4176   4.277   4.831   5.380 -0.3922  0.5466  0.1719
   31DOPC    HX 4177   4.346   4.900   5.326  0.1866 -0.8408 -0.9332
   31DOPC    HY 4178   4.251   4.863   5.483  0.5669 -1.4017  1.0884
   31DOPC   O31 4179   4.159   4.807   5.297  0.7222  0.3685  0.5333
   31DOPC   C31 4180   4.052   4.764   5.344  0.5596  0.2360  0.5519
   31DOPC   O32 4181   4.028   4.733   5.462 -0.1365  0.3102 -0.4911
   31DOPC   C32 4182   3.951   4.772   5.235  0.5341 -0.5709  0.2515
   31DOPC   H2X 4183   3.852   4.756   5.282  1.4430  0.1214  2.5653
   31DOPC   H2Y 4184   3.951   4.877   5.197 -2.2549 -0.9369 -1.0035
   31DOPC   C23 4185   4.365   4.498   4.961 -0.1812 -0.2060  0.0854
   31DOPC   H3R 4186   4.292   4.579   4.938  1.3672  1.2832  0.2101
   31DOPC   H3S 4187   4.304   4.406   4.970 -0.1834 -0.4145 -1.6813
   31DOPC   C24 4188   4.456   4.501   4.835 -0.0959 -0.7437 -0.2103
   31DOPC   H4R 4189   4.486   4.605   4.808 -3.6634  0.9412  1.5933
   31DOPC   H4S 4190   4.385   4.471   4.755  0.5127 -0.0441 -1.0386
   31DOPC   C25 4191   4.582   4.410   4.835  0.0192  0.4320  0.4378
   31DOPC   H5R 4192   4.552   4.303   4.844  2.6626 -0.4608 -0.4996
   31DOPC   H5S 4193   4.653   4.440   4.915  1.4991  1.5842 -1.2301
   31DOPC   C26 4194   4.655   4.441   4.703 -0.1227 -0.0109  0.0800
   31DOPC   H6R 4195   4.749   4.380   4.707 -0.5612 -0.8928 -1.8273
   31DOPC   H6S 4196   4.684   4.547   4.687  0.1484 -0.1683 -0.4959
   31DOPC   C27 4197   4.582   4.381   4.581 -0.1252  0.6484  0.9394
   31DOPC   H7R 4198   4.487   4.434   4.560 -0.3016 -0.4337 -1.3146
   31DOPC   H7S 4199   4.543   4.280   4.608 -0.5953  0.8045  0.8504
   31DOPC   C28 4200   4.660   4.368   4.457  0.0448 -0.1468 -0.0344
   31DOPC   H8R 4201   4.742   4.295   4.473  0.9553  0.9615  0.5286
   31DOPC   H8S 4202   4.724   4.458   4.441 -0.9118  0.5803  0.1250
   31DOPC   C29 4203   4.585   4.330   4.331  0.3937  0.1106  0.1017
   31DOPC   H9R 4204   4.509   4.250   4.328  1.4094 -0.9212  1.0815
   31DOPC  C210 4205   4.580   4.403   4.221 -0.5280  0.2743  0.1750
   31DOPC  H10R 4206   4.536   4.364   4.129  1.1563 -0.0095 -0.5393
   31DOPC  C211 4207   4.641   4.547   4.199  0.6129  0.1571  0.2866
   31DOPC  H11R 4208   4.617   4.598   4.294 -0.3959 -0.1082  0.1814
   31DOPC  H11S 4209   4.576   4.609   4.133  1.8689  0.0436 -1.1259
   31DOPC  C212 4210   4.787   4.537   4.148 -0.8517  0.4123  0.1471
   31DOPC  H12R 4211   4.786   4.479   4.054  0.1681 -0.1709  0.4737
   31DOPC  H12S 4212   4.847   4.484   4.225 -0.7249 -1.1085 -0.9649
   31DOPC  C213 4213   4.847   4.674   4.123 -0.1882  0.2154  0.1118
   31DOPC  H13R 4214   4.827   4.738   4.212 -3.4567  0.8987 -0.9604
   31DOPC  H13S 4215   4.794   4.714   4.034 -1.1749 -2.1556 -0.4549
   31DOPC  C214 4216   4.998   4.678   4.100  0.4206 -0.0639 -0.3655
   31DOPC  H14R 4217   5.046   4.620   4.181  0.6872  1.5629  0.6867
   31DOPC  H14S 4218   5.023   4.785   4.090  0.2735 -0.2329 -3.6406
   31DOPC  C215 4219   5.039   4.610   3.961  0.7587  0.0148 -0.6421
   31DOPC  H15R 4220   5.004   4.505   3.959  0.5975 -0.0519  2.2397
   31DOPC  H15S 4221   5.150   4.610   3.960  0.7660  0.0414 -0.1809
   31DOPC  C216 4222   4.985   4.685   3.836  0.2757 -0.2430 -0.0086
   31DOPC  H16R 4223   5.030   4.787   3.839 -1.6553  0.6396  0.1831
   31DOPC  H16S 4224   4.875   4.696   3.831  0.2363 -0.1772  0.8365
   31DOPC  C217 4225   5.014   4.598   3.704  0.6567 -0.1529 -0.1444
   31DOPC  H17R 4226   4.950   4.507   3.708  2.2299 -1.3155 -0.7408
   31DOPC  H17S 4227   5.120   4.565   3.706  0.0511 -2.1641  1.0947
   31DOPC  C218 4228   4.964   4.666   3.570 -0.4715  0.1787 -0.2049
   31DOPC  H18R 4229   5.009   4.763   3.542  1.6396 -1.1982 -1.9108
   31DOPC  H18S 4230   4.854   4.678   3.580 -0.7234  4.2579 -4.5045
   31DOPC  H18T 4231   4.978   4.592   3.488 -2.2749 -1.1543  0.6248
   31DOPC   C33 4232   3.980   4.672   5.121  0.2792  0.2641 -0.1160
   31DOPC   H3X 4233   4.008   4.578   5.174 -0.2592  1.2632  2.0999
   31DOPC   H3Y 4234   4.060   4.713   5.057  0.2064 -0.3223 -0.5837
   31DOPC   C34 4235   3.852   4.627   5.045  1.2049  0.3078  0.2060
   31DOPC   H4X 4236   3.782   4.709   5.017 -2.0637 -2.5420 -0.5830
   31DOPC   H4Y 4237   3.795   4.563   5.115 -1.0792  1.1452 -0.7934
   31DOPC   C35 4238   3.871   4.543   4.916  0.0099  0.4183  0.2510
   31DOPC   H5X 4239   3.950   4.465   4.926  2.9441  3.2614  1.3753
   31DOPC   H5Y 4240   3.903   4.624   4.846  1.1269 -1.9792 -2.2084
   31DOPC   C36 4241   3.747   4.474   4.870  0.2055  0.4920  0.2990
   31DOPC   H6X 4242   3.703   4.415   4.953 -0.6876  1.0762  0.2658
   31DOPC   H6Y 4243   3.666   4.550   4.860 -0.8159 -0.5977 -0.0165
   31DOPC   C37 4244   3.770   4.399   4.731  0.1472  0.0695  0.2995
   31DOPC   H7X 4245   3.830   4.307   4.748  0.3250  0.0935 -0.1865
   31DOPC   H7Y 4246   3.666   4.385   4.695 -0.1368  3.2863 -0.4165
   31DOPC   C38 4247   3.852   4.490   4.635 -0.1248  0.2874  0.1793
   31DOPC   H8X 4248   3.957   4.489   4.672 -0.5552  0.0794  1.4398
   31DOPC   H8Y 4249   3.809   4.592   4.632 -0.5355  0.1040 -1.7640
   31DOPC   C39 4250   3.856   4.429   4.493  0.6291 -0.0912 -0.1786
   31DOPC   H9X 4251   3.908   4.333   4.484  0.7352 -0.7577  4.8447
   31DOPC  C310 4252   3.797   4.482   4.380  0.4189 -0.4807  0.1446
   31DOPC  H10X 4253   3.809   4.432   4.283  0.3735 -0.1065 -0.0557
   31DOPC  C311 4254   3.725   4.616   4.375  0.0113 -0.5567  0.0348
   31DOPC  H11X 4255   3.800   4.696   4.364  0.1458 -0.3756  1.9609
   31DOPC  H11Y 4256   3.670   4.639   4.468 -1.4356 -0.4297 -0.8165
   31DOPC  C312 4257   3.612   4.615   4.267 -0.4372  0.0120 -0.6257
   31DOPC  H12X 4258   3.549   4.705   4.287 -1.2166 -0.6079 -0.2438
   31DOPC  H12Y 4259   3.548   4.524   4.265  1.5206 -1.4061 -1.6884
   31DOPC  C313 4260   3.674   4.639   4.124  0.0214  0.8289  0.0127
   31DOPC  H13X 4261   3.721   4.739   4.120  1.8162  0.0053 -0.4776
   31DOPC  H13Y 4262   3.747   4.561   4.094 -2.3619  0.0559 -4.5321
   31DOPC  C314 4263   3.560   4.657   4.019  0.0137  0.7515 -0.3875
   31DOPC  H14X 4264   3.601   4.683   3.919  0.8946  0.1094 -0.2022
   31DOPC  H14Y 4265   3.509   4.559   4.006  1.0902  0.2948 -1.2459
   31DOPC  C315 4266   3.453   4.763   4.055  0.7641 -0.0761 -0.2824
   31DOPC  H15X 4267   3.507   4.859   4.068  2.2335 -0.8613 -0.3239
   31DOPC  H15Y 4268   3.402   4.738   4.151 -0.9272  0.0873 -1.0961
   31DOPC  C316 4269   3.358   4.780   3.933 -0.4709 -0.1987 -0.6711
   31DOPC  H16X 4270   3.423   4.827   3.856  0.8567 -0.8086  0.0550
   31DOPC  H16Y 4271   3.312   4.685   3.899 -2.2963  0.1245  0.7464
   31DOPC  C317 4272   3.248   4.879   3.969  0.6126 -0.2131 -0.3024
   31DOPC  H17X 4273   3.301   4.956   4.029  0.3626 -0.0454 -0.2976
   31DOPC  H17Y 4274   3.209   4.920   3.874  1.9393  0.1256 -0.7256
   31DOPC  C318 4275   3.127   4.823   4.059  0.0034 -0.3422  0.1309
   31DOPC  H18X 4276   3.077   4.743   4.000  0.7162 -0.3298 -0.5097
   31DOPC  H18Y 4277   3.164   4.779   4.154  1.5307 -0.6072 -0.5541
   31DOPC  H18Z 4278   3.053   4.900   4.087 -3.1907 -3.3035  0.5016
   32DOPC     N 4279   3.650   3.570   5.926 -0.0050 -0.1771  0.3996
   32DOPC   C12 4280   3.631   3.511   5.786  0.1211 -0.0859  0.3974
   32DOPC  H12A 4281   3.524   3.506   5.775  0.1952  1.7391 -1.8546
   32DOPC  H12B 4282   3.671   3.411   5.781  0.5553  0.0962  0.1429
   32DOPC   C13 4283   3.578   3.699   5.928 -0.0972  0.3656  0.3459
   32DOPC  H13A 4284   3.612   3.757   5.844  1.2162  0.8329  1.1590
   32DOPC  H13B 4285   3.477   3.682   5.895  0.1334 -0.4733  0.0553
   32DOPC  H13C 4286   3.587   3.745   6.026 -0.7735  0.0195  0.5790
   32DOPC   C14 4287   3.793   3.596   5.944  0.0569 -0.2594 -0.3072
   32DOPC  H14A 4288   3.811   3.654   6.033 -0.6943 -0.8963  0.2774
   32DOPC  H14B 4289   3.851   3.504   5.949 -0.2358 -0.3972  3.6626
   32DOPC  H14C 4290   3.834   3.651   5.861 -0.0193 -0.9323 -0.7947
   32DOPC   C15 4291   3.590   3.475   6.032 -0.3257 -0.4190  0.5825
   32DOPC  H15A 4292   3.650   3.387   6.048  3.6656  1.5669 -1.8974
   32DOPC  H15B 4293   3.493   3.440   6.000 -0.2354  0.1168 -0.3172
   32DOPC  H15C 4294   3.587   3.537   6.120  3.1099  3.0135 -1.4066
   32DOPC   C11 4295   3.682   3.576   5.653 -0.2662  0.3835  0.2306
   32DOPC  H11A 4296   3.792   3.579   5.668 -0.3120  1.6699  0.4322
   32DOPC  H11B 4297   3.654   3.517   5.563 -0.8606  1.3945 -0.2632
   32DOPC     P 4298   3.712   3.827   5.614 -0.0027  0.1560 -0.4378
   32DOPC   O13 4299   3.830   3.829   5.703  0.2312 -0.5304  0.4820
   32DOPC   O14 4300   3.617   3.944   5.614  0.1698  0.3050 -0.2673
   32DOPC   O12 4301   3.620   3.699   5.641  0.7161 -0.1110 -0.2825
   32DOPC   O11 4302   3.757   3.807   5.464  0.0017 -0.5271  0.1424
   32DOPC    C1 4303   3.695   3.743   5.357  0.1958  0.5819  0.5243
   32DOPC    HA 4304   3.681   3.821   5.279  0.4049  1.5759  1.4638
   32DOPC    HB 4305   3.588   3.722   5.382 -0.5619  4.0612  0.6841
   32DOPC    C2 4306   3.762   3.622   5.301  0.7826  0.1256  0.5006
   32DOPC    HS 4307   3.782   3.559   5.390 -1.1401 -0.6287  0.4517
   32DOPC   O21 4308   3.881   3.675   5.237 -0.5636  0.4284  0.2706
   32DOPC   C21 4309   3.981   3.589   5.211 -0.5519 -0.3150  0.2265
   32DOPC   O22 4310   3.989   3.470   5.232 -0.0731 -0.3096 -0.2257
   32DOPC   C22 4311   4.093   3.665   5.138  0.4661  0.3593 -0.6380
   32DOPC   H2R 4312   4.188   3.647   5.194 -0.4527 -1.0410  0.5420
   32DOPC   H2S 4313   4.078   3.774   5.147  1.2760  0.3877  0.6434
   32DOPC    C3 4314   3.681   3.536   5.209 -0.4014  0.3795  0.4328
   32DOPC    HX 4315   3.596   3.503   5.273 -0.8343 -0.6317 -0.6347
   32DOPC    HY 4316   3.736   3.443   5.187 -2.0688 -0.7404  0.8155
   32DOPC   O31 4317   3.636   3.602   5.086  0.3688  0.3303  0.1324
   32DOPC   C31 4318   3.519   3.556   5.039  0.6207  0.0898 -0.1511
   32DOPC   O32 4319   3.443   3.486   5.101  0.0396 -0.1245 -0.1360
   32DOPC   C32 4320   3.494   3.609   4.903  0.4423  0.4387  0.5554
   32DOPC   H2X 4321   3.509   3.718   4.885  1.6904  0.2339  0.3005
   32DOPC   H2Y 4322   3.571   3.567   4.836  2.6691  3.0836  1.2562
   32DOPC   C23 4323   4.097   3.626   4.989  0.1844  0.0149  0.0319
   32DOPC   H3R 4324   4.150   3.714   4.948 -1.6081  2.1304  1.9661
   32DOPC   H3S 4325   3.995   3.617   4.946  0.4108 -1.2851 -0.2668
   32DOPC   C24 4326   4.176   3.499   4.968 -0.7407 -0.0616  0.5210
   32DOPC   H4R 4327   4.144   3.415   5.032  0.8343  0.6888  2.3879
   32DOPC   H4S 4328   4.281   3.525   4.994 -0.7701 -0.3625  0.9435
   32DOPC   C25 4329   4.177   3.466   4.814  0.1855 -0.5912 -0.0933
   32DOPC   H5R 4330   4.214   3.551   4.753  0.3720 -0.2858  0.4464
   32DOPC   H5S 4331   4.074   3.449   4.775  0.8846 -0.7174 -1.9844
   32DOPC   C26 4332   4.234   3.324   4.785  0.2715  0.0956  0.3445
   32DOPC   H6R 4333   4.196   3.256   4.863 -0.2766 -1.0432 -0.8724
   32DOPC   H6S 4334   4.345   3.329   4.792  0.2253  0.3155  0.9705
   32DOPC   C27 4335   4.191   3.254   4.655  0.5930  0.3079 -0.3313
   32DOPC   H7R 4336   4.081   3.267   4.654  0.7563  1.8943 -1.0906
   32DOPC   H7S 4337   4.219   3.146   4.655 -0.7985 -0.1219  1.7019
   32DOPC   C28 4338   4.244   3.315   4.532 -0.3867 -0.0326  0.2682
   32DOPC   H8R 4339   4.355   3.320   4.539 -0.4596  0.2443  1.4844
   32DOPC   H8S 4340   4.215   3.422   4.533 -0.2395  0.0577 -1.4958
   32DOPC   C29 4341   4.201   3.258   4.403  0.2789  0.3476  0.4656
   32DOPC   H9R 4342   4.163   3.155   4.401 -0.2755  0.5419  0.9791
   32DOPC  C210 4343   4.190   3.329   4.288 -0.5477  0.5286  0.5633
   32DOPC  H10R 4344   4.151   3.272   4.201  1.5771 -1.1282  0.6232
   32DOPC  C211 4345   4.233   3.474   4.267  0.1687 -0.0434 -0.3515
   32DOPC  H11R 4346   4.319   3.488   4.199  1.9311  0.4645  1.8487
   32DOPC  H11S 4347   4.265   3.517   4.364  2.2961 -2.7329  0.2534
   32DOPC  C212 4348   4.118   3.568   4.215 -0.5844  0.1017  0.3654
   32DOPC  H12R 4349   4.045   3.567   4.299 -0.0466 -1.6636  0.8495
   32DOPC  H12S 4350   4.063   3.523   4.129  0.9218  1.3818 -1.3310
   32DOPC  C213 4351   4.169   3.709   4.183  0.4214  0.0772 -0.3944
   32DOPC  H13R 4352   4.246   3.736   4.259 -0.0186  1.4912 -0.4288
   32DOPC  H13S 4353   4.082   3.774   4.208  0.5998 -0.0217  0.5156
   32DOPC  C214 4354   4.229   3.737   4.045  0.5459  0.3563  0.5570
   32DOPC  H14R 4355   4.143   3.766   3.981  0.7736 -0.9298 -0.3658
   32DOPC  H14S 4356   4.275   3.642   4.012 -0.8115 -0.5101  1.0746
   32DOPC  C215 4357   4.327   3.854   4.047 -0.0898 -0.9521 -1.0152
   32DOPC  H15R 4358   4.410   3.850   4.120 -1.4847  0.9098  0.7627
   32DOPC  H15S 4359   4.262   3.943   4.058 -0.1935 -0.9492 -1.6162
   32DOPC  C216 4360   4.399   3.870   3.913  0.0448  0.0193  0.1068
   32DOPC  H16R 4361   4.328   3.929   3.850 -1.8268 -2.5770 -0.3741
   32DOPC  H16S 4362   4.417   3.770   3.868  1.0904  0.1946  0.1119
   32DOPC  C217 4363   4.537   3.935   3.938 -0.9977  0.0390  1.1805
   32DOPC  H17R 4364   4.610   3.871   3.991  0.5997  1.2549  0.5464
   32DOPC  H17S 4365   4.524   4.021   4.008 -0.6493  1.0443  0.0534
   32DOPC  C218 4366   4.618   3.971   3.806  0.0160 -0.5347  0.8637
   32DOPC  H18R 4367   4.594   3.909   3.717  2.0360  0.9878 -0.8592
   32DOPC  H18S 4368   4.727   3.961   3.828 -0.1031 -1.6120  1.0037
   32DOPC  H18T 4369   4.604   4.074   3.766 -1.3696 -0.1054  2.3248
   32DOPC   C33 4370   3.357   3.574   4.859  0.5978 -0.8942 -0.1747
   32DOPC   H3X 4371   3.290   3.640   4.919  1.3388  0.4447 -0.7713
   32DOPC   H3Y 4372   3.328   3.470   4.886  0.3872 -0.5818  0.8360
   32DOPC   C34 4373   3.333   3.593   4.707  0.4609  0.6611 -0.2649
   32DOPC   H4X 4374   3.225   3.586   4.681 -0.2142  1.3667  2.1197
   32DOPC   H4Y 4375   3.384   3.515   4.647 -0.3103  0.9963 -1.3858
   32DOPC   C35 4376   3.394   3.721   4.648 -0.0220  0.4143  0.7080
   32DOPC   H5X 4377   3.356   3.716   4.544 -0.2324  0.3002  0.7876
   32DOPC   H5Y 4378   3.502   3.724   4.625 -0.0502 -1.9375  0.0000
   32DOPC   C36 4379   3.344   3.846   4.716 -0.4435 -0.4758 -0.0541
   32DOPC   H6X 4380   3.235   3.851   4.696  0.0084  1.5759 -2.4353
   32DOPC   H6Y 4381   3.359   3.846   4.827  0.5417  3.6459 -0.0353
   32DOPC   C37 4382   3.403   3.986   4.669  0.1259 -0.4666 -0.0373
   32DOPC   H7X 4383   3.363   4.070   4.729 -1.2755 -0.2751 -1.1810
   32DOPC   H7Y 4384   3.512   3.979   4.686 -0.2581 -1.7106  2.2237
   32DOPC   C38 4385   3.369   4.021   4.520  0.5215  0.1512 -0.2349
   32DOPC   H8X 4386   3.260   4.014   4.497  0.4706  0.6223 -0.1565
   32DOPC   H8Y 4387   3.415   3.953   4.445 -0.0957 -1.0863  0.4825
   32DOPC   C39 4388   3.407   4.164   4.508  0.5277  0.1485 -0.4274
   32DOPC   H9X 4389   3.347   4.239   4.562  1.5752 -0.0605  1.0910
   32DOPC  C310 4390   3.493   4.220   4.428 -0.1656 -0.3824 -0.3151
   32DOPC  H10X 4391   3.516   4.327   4.437  1.8450 -0.9920  3.9209
   32DOPC  C311 4392   3.587   4.141   4.339  0.3056 -0.3417  0.2875
   32DOPC  H11X 4393   3.648   4.212   4.279 -0.8813  0.8062  0.3949
   32DOPC  H11Y 4394   3.522   4.090   4.265  0.3891 -0.3215  0.1986
   32DOPC  C312 4395   3.687   4.044   4.402  0.0261  0.7970  0.5407
   32DOPC  H12X 4396   3.646   3.971   4.476 -5.1771  3.1227  0.3806
   32DOPC  H12Y 4397   3.764   4.100   4.459  0.6860  0.3804  0.0808
   32DOPC  C313 4398   3.756   3.955   4.297  0.4218 -0.2224 -0.5529
   32DOPC  H13X 4399   3.801   4.035   4.232 -1.1769  2.2725  1.2328
   32DOPC  H13Y 4400   3.840   3.902   4.347 -0.1097 -2.5699 -1.9780
   32DOPC  C314 4401   3.655   3.866   4.234 -0.5702 -0.3378  0.0082
   32DOPC  H14X 4402   3.668   3.770   4.288 -0.7966  0.1600  0.9546
   32DOPC  H14Y 4403   3.555   3.906   4.258  0.7490  3.1712  0.3210
   32DOPC  C315 4404   3.684   3.853   4.080  0.2942 -0.1351  0.3431
   32DOPC  H15X 4405   3.651   3.934   4.012  1.0240 -2.3451 -2.8866
   32DOPC  H15Y 4406   3.624   3.767   4.041  1.9792 -1.3476  0.3309
   32DOPC  C316 4407   3.825   3.826   4.054 -0.6867  0.5469  0.0940
   32DOPC  H16X 4408   3.901   3.901   4.085 -0.3659 -0.0880  0.8651
   32DOPC  H16Y 4409   3.854   3.740   4.118  1.9747  1.6348  0.4889
   32DOPC  C317 4410   3.852   3.784   3.906  0.5271 -0.3868 -0.5311
   32DOPC  H17X 4411   3.951   3.735   3.895  0.7652 -0.2428  0.8111
   32DOPC  H17Y 4412   3.783   3.707   3.867 -0.7021  1.5443 -2.4019
   32DOPC  C318 4413   3.841   3.893   3.804  0.1320  0.2932  0.5900
   32DOPC  H18X 4414   3.898   3.864   3.713  1.4185  2.3846  0.6536
   32DOPC  H18Y 4415   3.736   3.911   3.773  0.1612 -0.0750  0.2644
   32DOPC  H18Z 4416   3.890   3.985   3.843 -0.1473  0.7247 -0.0677
   33DOPC     N 4417   4.670   3.053   5.785 -0.8178 -0.1818 -0.8688
   33DOPC   C12 4418   4.657   3.190   5.726 -0.3668 -0.1165  0.1466
   33DOPC  H12A 4419   4.558   3.193   5.684  0.3834 -1.7628 -1.9008
   33DOPC  H12B 4420   4.733   3.213   5.652 -1.5314  2.8186 -0.2471
   33DOPC   C13 4421   4.568   3.041   5.890  0.1017  0.3332  0.0336
   33DOPC  H13A 4422   4.551   2.938   5.918  2.9663 -0.1051  0.4687
   33DOPC  H13B 4423   4.599   3.097   5.977 -0.8572 -1.2700  1.4815
   33DOPC  H13C 4424   4.475   3.084   5.856 -1.7313 -1.5964  2.2451
   33DOPC   C14 4425   4.805   3.014   5.836 -0.3727 -0.1211  0.1499
   33DOPC  H14A 4426   4.825   3.078   5.921  1.0183 -0.7242  0.2950
   33DOPC  H14B 4427   4.802   2.916   5.881 -1.1505 -0.1005  0.1516
   33DOPC  H14C 4428   4.883   3.021   5.762  1.4360  1.1482  2.0479
   33DOPC   C15 4429   4.635   2.957   5.677  0.5135 -0.1249 -0.6734
   33DOPC  H15A 4430   4.534   2.970   5.641  1.1797  0.0568 -2.5520
   33DOPC  H15B 4431   4.651   2.857   5.715  0.6812 -0.9965 -2.8629
   33DOPC  H15C 4432   4.700   2.965   5.592  3.2670  0.9260  1.3960
   33DOPC   C11 4433   4.662   3.307   5.817  0.3154  0.3063  0.7421
   33DOPC  H11A 4434   4.731   3.308   5.904 -2.1896  1.8983  2.8496
   33DOPC  H11B 4435   4.683   3.393   5.750 -0.7831 -0.0786 -0.1295
   33DOPC     P 4436   4.413   3.409   5.810 -0.6198 -0.2672  0.3084
   33DOPC   O13 4437   4.448   3.552   5.830  0.6696  0.1905  0.2622
   33DOPC   O14 4438   4.281   3.359   5.863  0.0939 -0.1412 -0.5608
   33DOPC   O12 4439   4.530   3.322   5.869  0.1127 -0.6281  0.2422
   33DOPC   O11 4440   4.429   3.379   5.653 -0.6185  0.3280 -0.1066
   33DOPC    C1 4441   4.312   3.406   5.564  0.6541  0.2116 -0.6070
   33DOPC    HA 4442   4.235   3.471   5.609 -2.0112 -2.3712 -1.0990
   33DOPC    HB 4443   4.254   3.312   5.553 -2.4448  1.8117  0.9589
   33DOPC    C2 4444   4.347   3.470   5.433  0.2533  0.6347 -0.0227
   33DOPC    HS 4445   4.248   3.486   5.383 -0.7738 -0.0208  1.7377
   33DOPC   O21 4446   4.441   3.389   5.359 -0.1357  0.1965  0.0467
   33DOPC   C21 4447   4.389   3.305   5.275 -0.2878  0.4636  0.0171
   33DOPC   O22 4448   4.270   3.292   5.249  0.2068 -0.2249  0.2586
   33DOPC   C22 4449   4.509   3.239   5.197  1.6306 -0.6033 -0.1046
   33DOPC   H2R 4450   4.564   3.161   5.254 -0.1451 -1.8182  0.0334
   33DOPC   H2S 4451   4.580   3.323   5.178 -0.6472  1.3855 -0.3099
   33DOPC    C3 4452   4.395   3.612   5.459  0.4445  0.0374  1.6526
   33DOPC    HX 4453   4.501   3.594   5.486  1.1751 -1.3060 -1.5270
   33DOPC    HY 4454   4.352   3.664   5.547 -3.9455  1.2498 -0.8700
   33DOPC   O31 4455   4.394   3.683   5.335  0.4093 -0.2559 -0.1625
   33DOPC   C31 4456   4.456   3.796   5.324 -0.0952  0.5480 -0.5678
   33DOPC   O32 4457   4.520   3.859   5.410 -0.4185  0.2502 -0.7578
   33DOPC   C32 4458   4.457   3.829   5.181  0.3443  0.1171  0.1308
   33DOPC   H2X 4459   4.357   3.809   5.137 -0.4220 -1.7858  2.4923
   33DOPC   H2Y 4460   4.482   3.936   5.170 -1.1665  0.4666 -0.0965
   33DOPC   C23 4461   4.459   3.183   5.066  0.4473 -0.3464  0.7968
   33DOPC   H3R 4462   4.423   3.264   4.999 -0.0645 -0.4358  0.9604
   33DOPC   H3S 4463   4.380   3.106   5.075 -0.1646  0.0075 -1.0317
   33DOPC   C24 4464   4.577   3.109   4.990 -0.2016  0.3699 -0.0301
   33DOPC   H4R 4465   4.527   3.076   4.897  0.7253 -2.5238  0.4130
   33DOPC   H4S 4466   4.614   3.023   5.050 -0.7526 -0.7765 -1.2914
   33DOPC   C25 4467   4.692   3.197   4.944  0.3835  0.7997 -0.1834
   33DOPC   H5R 4468   4.767   3.217   5.024  0.4240 -0.0696  0.0086
   33DOPC   H5S 4469   4.651   3.291   4.901 -2.3869  0.0699  0.5921
   33DOPC   C26 4470   4.771   3.114   4.848 -0.2632 -0.5475 -0.0185
   33DOPC   H6R 4471   4.714   3.100   4.753 -0.1708  0.1484 -0.1766
   33DOPC   H6S 4472   4.780   3.012   4.892 -2.8331 -1.0169 -0.4094
   33DOPC   C27 4473   4.910   3.182   4.820 -0.1950  0.1405 -0.5507
   33DOPC   H7R 4474   4.975   3.172   4.910  1.5153 -0.7789 -1.8308
   33DOPC   H7S 4475   4.887   3.290   4.810  3.0590  1.0181  0.2990
   33DOPC   C28 4476   4.986   3.124   4.698  0.4055  0.3839 -0.2469
   33DOPC   H8R 4477   4.903   3.089   4.634 -0.9478  3.6472 -0.4643
   33DOPC   H8S 4478   5.036   3.030   4.731  0.8814  0.8290  0.3217
   33DOPC   C29 4479   5.087   3.218   4.633  0.0619  0.0368 -0.5928
   33DOPC   H9R 4480   5.041   3.307   4.586 -3.5372 -1.9035 -1.0468
   33DOPC  C210 4481   5.223   3.218   4.642 -0.7922  0.2450  0.0939
   33DOPC  H10R 4482   5.274   3.300   4.589  2.4371 -1.4889  0.3022
   33DOPC  C211 4483   5.311   3.119   4.721  0.1681  0.0347 -1.0066
   33DOPC  H11R 4484   5.246   3.073   4.799 -0.6057  1.2986 -0.8692
   33DOPC  H11S 4485   5.388   3.165   4.786  1.9213 -4.1023  0.1591
   33DOPC  C212 4486   5.374   2.997   4.640  0.3560 -0.1497  0.3714
   33DOPC  H12R 4487   5.464   3.029   4.584  0.2788 -0.0653  0.2960
   33DOPC  H12S 4488   5.298   2.973   4.562 -0.1373  0.7149  0.5730
   33DOPC  C213 4489   5.395   2.873   4.716  0.4696  0.7156  0.3170
   33DOPC  H13R 4490   5.295   2.855   4.761 -0.2726  1.7660 -0.8624
   33DOPC  H13S 4491   5.465   2.887   4.801  0.3740 -0.1276  0.5484
   33DOPC  C214 4492   5.434   2.754   4.626 -0.1944  0.2465 -0.3775
   33DOPC  H14R 4493   5.531   2.778   4.578 -0.5354  0.0099 -1.2213
   33DOPC  H14S 4494   5.354   2.750   4.549 -1.8580 -1.9387  1.3445
   33DOPC  C215 4495   5.435   2.619   4.708 -0.4914  0.2076  0.6821
   33DOPC  H15R 4496   5.346   2.622   4.776 -0.0073  0.6463  1.3085
   33DOPC  H15S 4497   5.519   2.622   4.781 -0.2838  0.8254  0.4122
   33DOPC  C216 4498   5.445   2.495   4.620  0.7372 -0.5213 -0.5178
   33DOPC  H16R 4499   5.376   2.523   4.537  0.9763  1.2671 -0.1513
   33DOPC  H16S 4500   5.383   2.411   4.659  0.6736  0.1721  0.9357
   33DOPC  C217 4501   5.584   2.455   4.570  0.9524 -0.2816  1.0822
   33DOPC  H17R 4502   5.657   2.437   4.652  2.6617 -0.1175 -0.3484
   33DOPC  H17S 4503   5.623   2.538   4.508  1.8560 -1.8393 -0.5409
   33DOPC  C218 4504   5.588   2.336   4.478 -0.4231  0.0953  0.4271
   33DOPC  H18R 4505   5.683   2.307   4.428 -2.1448 -0.0350 -3.0580
   33DOPC  H18S 4506   5.516   2.344   4.394  1.3929 -2.3631 -1.5007
   33DOPC  H18T 4507   5.560   2.251   4.544 -0.7446  0.6835  1.0538
   33DOPC   C33 4508   4.565   3.744   5.109 -0.5491  0.2278 -0.0089
   33DOPC   H3X 4509   4.525   3.641   5.113 -1.2908  0.5427  3.3921
   33DOPC   H3Y 4510   4.667   3.770   5.143  0.0966  0.5693 -2.0520
   33DOPC   C34 4511   4.566   3.779   4.953 -0.4095 -0.2591 -0.4686
   33DOPC   H4X 4512   4.467   3.792   4.905  0.5555  0.8126 -2.3148
   33DOPC   H4Y 4513   4.612   3.696   4.895  2.3351  0.1224  1.0184
   33DOPC   C35 4514   4.661   3.898   4.936  0.2567 -0.1872  0.4074
   33DOPC   H5X 4515   4.762   3.865   4.967 -0.6396 -2.4297  1.1381
   33DOPC   H5Y 4516   4.629   3.976   5.008 -2.5371  0.3033 -1.1809
   33DOPC   C36 4517   4.682   3.961   4.794  0.4864  0.6908 -0.1129
   33DOPC   H6X 4518   4.586   4.004   4.759  0.1254 -0.3409 -0.4208
   33DOPC   H6Y 4519   4.759   4.041   4.797  0.4207  0.7867 -0.9160
   33DOPC   C37 4520   4.739   3.877   4.685 -0.1507  0.0013  0.5965
   33DOPC   H7X 4521   4.831   3.823   4.716  0.8365  1.0101 -0.4998
   33DOPC   H7Y 4522   4.659   3.804   4.658 -1.6239  2.2123 -1.4580
   33DOPC   C38 4523   4.776   3.956   4.556 -0.0174  0.3584  0.6596
   33DOPC   H8X 4524   4.854   4.030   4.584  1.0686 -0.5564  0.1248
   33DOPC   H8Y 4525   4.685   4.015   4.534 -1.1901 -2.0014 -1.3050
   33DOPC   C39 4526   4.825   3.873   4.438  0.0534  1.1310  0.9376
   33DOPC   H9X 4527   4.883   3.784   4.468 -0.5970 -0.3786 -1.9240
   33DOPC  C310 4528   4.782   3.883   4.311  0.0233 -0.3148 -0.5472
   33DOPC  H10X 4529   4.840   3.832   4.232  3.0229  0.6283  0.9075
   33DOPC  C311 4530   4.694   3.998   4.247 -0.1738  0.1212 -0.0290
   33DOPC  H11X 4531   4.666   4.078   4.319 -0.4411  2.4376 -2.5304
   33DOPC  H11Y 4532   4.599   3.953   4.211  0.8034 -1.7424 -0.3922
   33DOPC  C312 4533   4.784   4.074   4.137  0.4412  0.3131 -1.3145
   33DOPC  H12X 4534   4.715   4.137   4.078 -0.2083 -0.9480 -1.9293
   33DOPC  H12Y 4535   4.823   4.009   4.056  1.8857 -0.6529  0.0918
   33DOPC  C313 4536   4.890   4.169   4.195  0.4470 -0.0851  0.3600
   33DOPC  H13X 4537   4.893   4.264   4.137 -2.5058 -0.2554 -0.2490
   33DOPC  H13Y 4538   4.875   4.193   4.303 -1.0779 -2.3094  0.6967
   33DOPC  C314 4539   5.030   4.129   4.195 -0.2260  1.0188  0.7250
   33DOPC  H14X 4540   5.038   4.053   4.276 -0.1779 -0.4045 -0.5675
   33DOPC  H14Y 4541   5.040   4.068   4.103  2.5404 -1.2404  2.3466
   33DOPC  C315 4542   5.122   4.256   4.179 -0.6220  0.5438 -0.6787
   33DOPC  H15X 4543   5.105   4.337   4.253  1.4487 -1.6300  2.4320
   33DOPC  H15Y 4544   5.100   4.298   4.078  1.8954  1.0531 -1.0711
   33DOPC  C316 4545   5.273   4.215   4.186 -0.4766 -0.8901  0.0792
   33DOPC  H16X 4546   5.294   4.191   4.293  0.2007 -1.2206 -0.1250
   33DOPC  H16Y 4547   5.297   4.125   4.126  0.4874 -0.8245  0.3382
   33DOPC  C317 4548   5.388   4.302   4.129  0.8217 -0.3056  0.8084
   33DOPC  H17X 4549   5.407   4.386   4.199  0.4886  0.3832  0.1020
   33DOPC  H17Y 4550   5.478   4.238   4.131 -0.3312 -2.0084  0.6783
   33DOPC  C318 4551   5.361   4.342   3.982  0.5532 -0.3532 -0.2877
   33DOPC  H18X 4552   5.260   4.374   3.952  0.9978  1.8676  0.4335
   33DOPC  H18Y 4553   5.428   4.415   3.931 -0.0434 -1.2491 -2.4739
   33DOPC  H18Z 4554   5.385   4.245   3.933 -0.5504 -2.0109  2.2448
   34DOPC     N 4555   1.897   1.090   5.439  0.1163 -0.3352  0.3960
   34DOPC   C12 4556   1.984   1.042   5.319  0.1788 -0.2242 -0.6728
   34DOPC  H12A 4557   1.958   0.941   5.293  0.6655 -0.7442  0.7803
   34DOPC  H12B 4558   2.088   1.031   5.345  0.0484  0.0003 -0.0425
   34DOPC   C13 4559   1.753   1.086   5.401  0.0476  0.0258  0.3894
   34DOPC  H13A 4560   1.749   1.119   5.298  2.0693 -3.5401 -0.9880
   34DOPC  H13B 4561   1.717   0.985   5.394  2.3314 -0.7495 -1.2428
   34DOPC  H13C 4562   1.688   1.154   5.454 -0.5677  1.0780 -1.5758
   34DOPC   C14 4563   1.940   1.232   5.464  0.9029  0.2461  0.0204
   34DOPC  H14A 4564   2.046   1.227   5.442  1.0676  0.5873  0.7071
   34DOPC  H14B 4565   1.895   1.304   5.397  1.0284 -0.3071 -0.6697
   34DOPC  H14C 4566   1.937   1.256   5.569  0.5145  0.2698  0.0027
   34DOPC   C15 4567   1.921   1.011   5.559 -0.1876  0.5097  0.6407
   34DOPC  H15A 4568   1.911   0.907   5.534 -0.5461  0.7218 -0.1150
   34DOPC  H15B 4569   1.859   1.044   5.641 -1.1606  1.7239 -0.5444
   34DOPC  H15C 4570   2.021   1.012   5.600  0.1692 -3.4140  0.1826
   34DOPC   C11 4571   1.973   1.125   5.194  0.5798  0.1938 -0.1600
   34DOPC  H11A 4572   1.988   1.233   5.219 -2.1222  0.4383  0.7399
   34DOPC  H11B 4573   2.056   1.091   5.128  0.3738  0.3519 -0.5046
   34DOPC     P 4574   1.793   1.171   5.010  0.1636  0.4882 -0.0566
   34DOPC   O13 4575   1.844   1.119   4.881  0.0315 -0.7216  0.2745
   34DOPC   O14 4576   1.800   1.320   5.029 -0.3586  0.2309 -0.1897
   34DOPC   O12 4577   1.848   1.093   5.134 -0.1049 -0.6907 -0.2745
   34DOPC   O11 4578   1.638   1.120   5.010 -0.8758  0.0335  0.2404
   34DOPC    C1 4579   1.569   1.082   4.894  0.6738 -0.1391 -0.0813
   34DOPC    HA 4580   1.478   1.025   4.919 -0.6590  2.0183  0.2426
   34DOPC    HB 4581   1.630   1.011   4.834  1.2073  0.1426  0.1258
   34DOPC    C2 4582   1.516   1.201   4.815  0.2687 -0.2281 -0.4388
   34DOPC    HS 4583   1.606   1.264   4.797 -0.4661  1.5950  1.7937
   34DOPC   O21 4584   1.411   1.272   4.891 -0.4189 -0.0060  0.2540
   34DOPC   C21 4585   1.403   1.400   4.859  0.9401 -0.0752 -0.3385
   34DOPC   O22 4586   1.471   1.452   4.770  0.2985 -0.5118  0.0019
   34DOPC   C22 4587   1.307   1.476   4.950 -0.8902  0.0700  0.2954
   34DOPC   H2R 4588   1.367   1.532   5.025  2.6424 -2.2177 -0.6122
   34DOPC   H2S 4589   1.241   1.398   4.994 -1.3034  1.4451  2.2755
   34DOPC    C3 4590   1.459   1.151   4.682  0.2620  0.5248 -0.0511
   34DOPC    HX 4591   1.434   1.233   4.612  0.1993  0.7129  0.1906
   34DOPC    HY 4592   1.362   1.098   4.697  0.7322  0.0097  1.3603
   34DOPC   O31 4593   1.550   1.059   4.622 -0.0397  0.1694  0.5130
   34DOPC   C31 4594   1.649   1.104   4.543  0.6177 -0.6118 -0.2651
   34DOPC   O32 4595   1.640   1.213   4.488  0.4270  0.5440  0.1672
   34DOPC   C32 4596   1.760   1.002   4.514 -0.4381  0.2745 -0.1268
   34DOPC   H2X 4597   1.841   1.006   4.589  0.3579 -0.6788 -0.9036
   34DOPC   H2Y 4598   1.708   0.904   4.523 -0.6226  0.3912  0.0732
   34DOPC   C23 4599   1.218   1.581   4.869  0.5141 -0.0150  0.3125
   34DOPC   H3R 4600   1.180   1.535   4.775 -2.6954  0.3585  1.3133
   34DOPC   H3S 4601   1.282   1.669   4.847 -0.0851  0.2560 -0.3699
   34DOPC   C24 4602   1.103   1.639   4.957 -0.0873 -0.4379 -0.5861
   34DOPC   H4R 4603   1.150   1.670   5.053 -0.2651 -1.7960 -0.0401
   34DOPC   H4S 4604   1.030   1.560   4.985 -0.7339  0.6833  1.0747
   34DOPC   C25 4605   1.019   1.754   4.895  0.1113 -0.1580  0.3746
   34DOPC   H5R 4606   1.090   1.831   4.858  1.3975 -1.4936 -0.0171
   34DOPC   H5S 4607   0.957   1.799   4.976  1.3725 -0.0600  1.3334
   34DOPC   C26 4608   0.945   1.715   4.768 -0.2301  0.1932  0.0123
   34DOPC   H6R 4609   1.018   1.684   4.690 -1.0402 -2.1108  0.0968
   34DOPC   H6S 4610   0.882   1.797   4.726 -1.2531 -0.6712 -0.1716
   34DOPC   C27 4611   0.838   1.600   4.790  0.1783 -0.1696  0.2474
   34DOPC   H7R 4612   0.781   1.630   4.881  1.7269 -1.2648  1.6514
   34DOPC   H7S 4613   0.879   1.502   4.824 -0.8033 -0.8625 -0.4734
   34DOPC   C28 4614   0.743   1.562   4.675 -0.2043 -0.0535 -0.3104
   34DOPC   H8R 4615   0.801   1.501   4.603  1.4193  1.0922 -0.0310
   34DOPC   H8S 4616   0.728   1.658   4.621  0.5848 -0.4260 -1.2341
   34DOPC   C29 4617   0.606   1.501   4.713 -0.4421  0.5022 -0.3624
   34DOPC   H9R 4618   0.532   1.579   4.734  1.9088  2.7495  0.1496
   34DOPC  C210 4619   0.575   1.372   4.735 -0.0896 -0.1966  0.6877
   34DOPC  H10R 4620   0.469   1.351   4.755  0.1948 -0.9719  1.4547
   34DOPC  C211 4621   0.675   1.256   4.707  0.1539 -0.1982  0.2479
   34DOPC  H11R 4622   0.676   1.191   4.797 -0.3519  0.7148  0.9414
   34DOPC  H11S 4623   0.777   1.300   4.698  0.1720 -0.7089 -3.6825
   34DOPC  C212 4624   0.645   1.167   4.582 -0.0319 -0.0310 -0.6056
   34DOPC  H12R 4625   0.561   1.098   4.606  0.5750 -0.0214  1.8226
   34DOPC  H12S 4626   0.728   1.095   4.569 -0.2591 -0.0602 -2.0246
   34DOPC  C213 4627   0.641   1.254   4.456  0.5740 -0.4594  0.7511
   34DOPC  H13R 4628   0.723   1.328   4.441 -0.1884 -0.1545 -2.6708
   34DOPC  H13S 4629   0.549   1.315   4.468  0.5790 -0.4415  0.6976
   34DOPC  C214 4630   0.644   1.164   4.326 -0.2944 -0.0476  0.0474
   34DOPC  H14R 4631   0.737   1.103   4.329  1.1710  1.9698 -1.8555
   34DOPC  H14S 4632   0.664   1.237   4.246  0.2336 -0.7420 -0.4717
   34DOPC  C215 4633   0.521   1.075   4.292 -0.2414  0.0623 -1.1577
   34DOPC  H15R 4634   0.438   1.148   4.286  1.3691  1.9828 -1.4302
   34DOPC  H15S 4635   0.503   1.007   4.377 -0.1349  0.4683 -0.8044
   34DOPC  C216 4636   0.538   0.983   4.174 -0.4355 -0.0990  0.4409
   34DOPC  H16R 4637   0.452   0.914   4.167 -0.0794 -0.8164  2.4958
   34DOPC  H16S 4638   0.624   0.914   4.185 -2.1127 -2.7109 -1.4907
   34DOPC  C217 4639   0.559   1.066   4.043  0.2098  0.3657  0.3306
   34DOPC  H17R 4640   0.654   1.120   4.061  0.2544  0.1568  0.7284
   34DOPC  H17S 4641   0.475   1.139   4.033  2.2970  2.7352 -0.9625
   34DOPC  C218 4642   0.560   0.980   3.919  0.2697  0.7624  0.2446
   34DOPC  H18R 4643   0.614   0.883   3.924 -0.0081  0.6092  0.3395
   34DOPC  H18S 4644   0.596   1.046   3.838  1.0219  1.2578  0.9666
   34DOPC  H18T 4645   0.458   0.954   3.884  0.0460  1.7741  0.1296
   34DOPC   C33 4646   1.828   1.026   4.381  0.5940  0.1972 -0.1073
   34DOPC   H3X 4647   1.883   1.122   4.392  0.2111  0.5411 -1.1100
   34DOPC   H3Y 4648   1.744   1.035   4.309 -1.6522  0.3573  2.3694
   34DOPC   C34 4649   1.920   0.918   4.333  0.2727  0.4481 -1.2515
   34DOPC   H4X 4650   1.966   0.946   4.236  1.8049  1.9219 -0.1465
   34DOPC   H4Y 4651   1.863   0.823   4.324  1.7973 -0.7382  0.9025
   34DOPC   C35 4652   2.032   0.892   4.431 -0.3559 -0.3325  0.0776
   34DOPC   H5X 4653   1.990   0.891   4.534 -1.6767  0.5782 -0.4189
   34DOPC   H5Y 4654   2.101   0.978   4.445 -0.7047 -0.0518  0.0701
   34DOPC   C36 4655   2.121   0.770   4.411 -0.2956  0.8715  0.2741
   34DOPC   H6X 4656   2.060   0.678   4.400  1.7398 -0.8041  1.9650
   34DOPC   H6Y 4657   2.184   0.779   4.319 -2.1332 -1.1482 -1.2958
   34DOPC   C37 4658   2.218   0.732   4.529  0.6367 -0.1145  0.3810
   34DOPC   H7X 4659   2.311   0.781   4.493 -0.7035 -0.2703 -3.7859
   34DOPC   H7Y 4660   2.186   0.765   4.630  1.6381  1.1679  0.2945
   34DOPC   C38 4661   2.248   0.583   4.544  0.1325 -0.3931 -0.2766
   34DOPC   H8X 4662   2.340   0.577   4.605 -0.1638  2.2699  0.5183
   34DOPC   H8Y 4663   2.288   0.546   4.447 -0.1854  0.1201 -0.6117
   34DOPC   C39 4664   2.142   0.505   4.611  0.1627 -0.4491  0.0264
   34DOPC   H9X 4665   2.041   0.517   4.569 -0.0298  1.5119  0.9516
   34DOPC  C310 4666   2.160   0.407   4.705 -0.0384 -0.0141 -0.8163
   34DOPC  H10X 4667   2.070   0.357   4.744  1.4979  0.7269  4.5501
   34DOPC  C311 4668   2.287   0.369   4.777 -0.2003  0.1817  0.0057
   34DOPC  H11X 4669   2.353   0.458   4.779 -0.8932  0.7081  0.0115
   34DOPC  H11Y 4670   2.335   0.286   4.721  0.5960  0.0699  0.8432
   34DOPC  C312 4671   2.269   0.325   4.919 -0.1954  0.2761 -0.1729
   34DOPC  H12X 4672   2.211   0.389   4.989 -1.3390 -2.1109  1.1949
   34DOPC  H12Y 4673   2.369   0.327   4.967 -0.1942 -1.4385 -0.0408
   34DOPC  C313 4674   2.217   0.182   4.930 -0.2399  0.5280 -0.3287
   34DOPC  H13X 4675   2.127   0.172   4.865 -1.1191 -2.0257  1.1111
   34DOPC  H13Y 4676   2.294   0.114   4.889  1.1010  1.9083 -0.1826
   34DOPC  C314 4677   2.180   0.156   5.078  0.2860  0.0872 -0.3796
   34DOPC  H14X 4678   2.269   0.188   5.138  1.7965  1.7900 -3.2935
   34DOPC  H14Y 4679   2.099   0.228   5.102  0.1270 -0.0517 -0.5024
   34DOPC  C315 4680   2.126   0.017   5.107 -0.5323  0.2020  0.8481
   34DOPC  H15X 4681   2.203  -0.063   5.100 -1.1251 -0.3350  0.1985
   34DOPC  H15Y 4682   2.042  -0.016   5.042  0.8298 -2.8090  0.4482
   34DOPC  C316 4683   2.079   0.008   5.257  0.3983  0.3794  0.1280
   34DOPC  H16X 4684   2.162   0.040   5.323 -1.2601  2.8791  1.1270
   34DOPC  H16Y 4685   1.992   0.070   5.286  0.4364  0.2014  0.6261
   34DOPC  C317 4686   2.047  -0.137   5.295  0.0639 -0.0807 -0.2834
   34DOPC  H17X 4687   2.110  -0.217   5.251 -0.9049 -0.6712 -0.6245
   34DOPC  H17Y 4688   2.060  -0.143   5.405  0.5251  1.4035 -0.2303
   34DOPC  C318 4689   1.907  -0.181   5.253  1.0637 -0.1640 -0.2163
   34DOPC  H18X 4690   1.834  -0.159   5.334  1.5971 -0.8114  0.4500
   34DOPC  H18Y 4691   1.866  -0.106   5.181  1.7016  0.5386  0.1408
   34DOPC  H18Z 4692   1.904  -0.283   5.209 -0.9184 -0.4998  0.6112
   35DOPC     N 4693   1.490   1.015   5.910 -0.2224  0.3261  0.2479
   35DOPC   C12 4694   1.407   1.024   5.780 -0.0925 -0.4593  0.5003
   35DOPC  H12A 4695   1.411   1.120   5.732  2.2136 -0.2963  0.8770
   35DOPC  H12B 4696   1.304   1.000   5.802  0.1016 -1.3253  0.4964
   35DOPC   C13 4697   1.477   0.882   5.981  0.3955  0.6501  0.2599
   35DOPC  H13A 4698   1.471   0.800   5.911  2.0985  0.5763  0.1683
   35DOPC  H13B 4699   1.546   0.868   6.063  1.1090  2.4012  0.0227
   35DOPC  H13C 4700   1.377   0.870   6.020  0.2443  2.0504  0.3585
   35DOPC   C14 4701   1.455   1.117   6.017  0.1510  0.5144  0.4379
   35DOPC  H14A 4702   1.492   1.089   6.115 -2.1960 -2.9135  0.5126
   35DOPC  H14B 4703   1.497   1.215   5.998  2.4586 -0.4840  0.0547
   35DOPC  H14C 4704   1.350   1.125   6.039  0.6139  1.5454  2.6133
   35DOPC   C15 4705   1.637   1.039   5.877  0.2423  0.7515  0.1529
   35DOPC  H15A 4706   1.666   0.999   5.781  1.7098  1.2079  0.3812
   35DOPC  H15B 4707   1.709   0.988   5.941  0.0711  0.2472 -0.0483
   35DOPC  H15C 4708   1.664   1.143   5.869 -1.0630  1.0085 -1.4487
   35DOPC   C11 4709   1.441   0.930   5.660 -0.6666 -0.3343  0.5288
   35DOPC  H11A 4710   1.355   0.941   5.591  1.0301  2.0265 -1.4310
   35DOPC  H11B 4711   1.536   0.968   5.615 -0.2042 -1.6606  0.3512
   35DOPC     P 4712   1.588   0.708   5.670 -0.3116  0.0594 -0.0075
   35DOPC   O13 4713   1.617   0.633   5.796 -0.0724  0.8938 -0.2516
   35DOPC   O14 4714   1.702   0.796   5.622 -0.0582 -0.9391  0.2252
   35DOPC   O12 4715   1.446   0.794   5.686  0.0383  0.2716  0.5833
   35DOPC   O11 4716   1.555   0.599   5.555  0.2889 -0.0655 -0.4753
   35DOPC    C1 4717   1.511   0.645   5.426  0.0027  0.3838 -0.5167
   35DOPC    HA 4718   1.570   0.728   5.383  3.2183 -1.5647 -0.2015
   35DOPC    HB 4719   1.404   0.673   5.433 -0.2516 -0.5011 -0.6707
   35DOPC    C2 4720   1.520   0.533   5.324 -0.0163  0.4413 -0.1040
   35DOPC    HS 4721   1.468   0.447   5.372  0.5016  0.0555 -0.2195
   35DOPC   O21 4722   1.656   0.517   5.288 -0.5065  0.1007 -0.2165
   35DOPC   C21 4723   1.689   0.391   5.262  0.2180 -0.3027 -0.2763
   35DOPC   O22 4724   1.614   0.297   5.277  0.6247  0.2851 -0.2697
   35DOPC   C22 4725   1.834   0.378   5.225 -0.2380 -0.4337 -0.3802
   35DOPC   H2R 4726   1.863   0.281   5.271  0.1903 -0.4247 -0.6317
   35DOPC   H2S 4727   1.897   0.457   5.271  0.1728 -0.8199 -0.2748
   35DOPC    C3 4728   1.435   0.567   5.198  0.4361 -0.4150  0.2528
   35DOPC    HX 4729   1.469   0.668   5.165 -0.0743 -0.0283  0.8763
   35DOPC    HY 4730   1.331   0.582   5.234  0.7477  0.5099  0.7960
   35DOPC   O31 4731   1.447   0.461   5.101  0.3559 -0.0699 -0.0019
   35DOPC   C31 4732   1.367   0.360   5.119  0.0219  0.3224 -0.7808
   35DOPC   O32 4733   1.295   0.336   5.211  0.3652  0.5135 -0.5464
   35DOPC   C32 4734   1.361   0.282   4.987 -0.0870  0.3519 -0.3225
   35DOPC   H2X 4735   1.416   0.339   4.910  0.9239  1.0562  0.8936
   35DOPC   H2Y 4736   1.405   0.181   5.002 -0.1219  0.0647 -2.0001
   35DOPC   C23 4737   1.847   0.392   5.074 -0.1383  0.0590  0.2005
   35DOPC   H3R 4738   1.952   0.381   5.042 -0.1257 -0.7300  0.4948
   35DOPC   H3S 4739   1.833   0.495   5.036 -2.2488  0.0509  0.8026
   35DOPC   C24 4740   1.762   0.297   4.989  0.0561  0.2977 -1.0675
   35DOPC   H4R 4741   1.773   0.311   4.879 -0.6029 -1.8342 -1.4593
   35DOPC   H4S 4742   1.656   0.298   5.022  0.3548 -0.7717 -0.0160
   35DOPC   C25 4743   1.792   0.144   5.001  0.9937 -0.0001  0.5278
   35DOPC   H5R 4744   1.798   0.113   5.108  1.2002  0.1866  0.5711
   35DOPC   H5S 4745   1.895   0.131   4.961  0.1713 -1.5925 -1.2097
   35DOPC   C26 4746   1.693   0.058   4.912 -0.7796  0.0307  0.2657
   35DOPC   H6R 4747   1.703   0.095   4.808  0.4255 -1.4401 -0.1761
   35DOPC   H6S 4748   1.590   0.078   4.948 -1.1430 -0.4474 -0.4854
   35DOPC   C27 4749   1.739  -0.087   4.927  0.6195 -0.0196  0.4096
   35DOPC   H7R 4750   1.706  -0.128   5.025  1.4100  0.2521  0.7967
   35DOPC   H7S 4751   1.849  -0.100   4.928  0.6308  0.0796  0.7983
   35DOPC   C28 4752   1.687  -0.176   4.812  0.4837  0.3245  0.2402
   35DOPC   H8R 4753   1.732  -0.277   4.804 -1.3379 -0.3694 -3.9764
   35DOPC   H8S 4754   1.698  -0.117   4.718  0.1823 -1.3673 -0.8941
   35DOPC   C29 4755   1.539  -0.182   4.835  0.5546  0.6961 -0.3404
   35DOPC   H9R 4756   1.491  -0.083   4.832  0.9173  0.8432 -1.5427
   35DOPC  C210 4757   1.471  -0.294   4.864  0.0473  0.6278 -0.8514
   35DOPC  H10R 4758   1.363  -0.289   4.881  0.3301  2.8966  0.9112
   35DOPC  C211 4759   1.535  -0.429   4.879 -0.2083 -0.1959 -0.2611
   35DOPC  H11R 4760   1.471  -0.480   4.953 -0.4246  1.5309  0.8049
   35DOPC  H11S 4761   1.634  -0.431   4.931  0.6408  1.6987 -1.6525
   35DOPC  C212 4762   1.520  -0.511   4.751  0.6879 -0.0818  0.5438
   35DOPC  H12R 4763   1.418  -0.500   4.710  0.3943 -2.9156  0.3307
   35DOPC  H12S 4764   1.526  -0.621   4.764 -1.9432 -0.2214  1.1582
   35DOPC  C213 4765   1.618  -0.470   4.638  0.1169  0.8197  0.2465
   35DOPC  H13R 4766   1.722  -0.478   4.677  0.2122  1.1780  0.0666
   35DOPC  H13S 4767   1.597  -0.364   4.611 -1.7640  0.6535  0.9157
   35DOPC  C214 4768   1.621  -0.562   4.518 -0.2140 -0.3879 -0.0606
   35DOPC  H14R 4769   1.519  -0.574   4.475  0.5294 -0.6380 -1.8641
   35DOPC  H14S 4770   1.656  -0.663   4.548 -1.1056 -0.9548 -0.8709
   35DOPC  C215 4771   1.708  -0.508   4.405  0.5070 -0.0845  0.0169
   35DOPC  H15R 4772   1.813  -0.540   4.420  0.0597 -1.2947  0.7244
   35DOPC  H15S 4773   1.699  -0.397   4.413 -1.3169 -0.2291  0.4300
   35DOPC  C216 4774   1.672  -0.551   4.264 -0.5530  0.3641  0.0871
   35DOPC  H16R 4775   1.585  -0.492   4.228 -0.4489 -0.6108 -1.8546
   35DOPC  H16S 4776   1.657  -0.660   4.248  0.8567  0.3702 -1.5646
   35DOPC  C217 4777   1.789  -0.516   4.163 -0.0703 -0.1772 -0.5335
   35DOPC  H17R 4778   1.745  -0.526   4.061  0.3645  0.5041 -0.7930
   35DOPC  H17S 4779   1.864  -0.598   4.155  0.3718  0.1742  0.0089
   35DOPC  C218 4780   1.865  -0.381   4.176 -0.2443 -0.2587 -0.4411
   35DOPC  H18R 4781   1.801  -0.290   4.172 -1.2133 -0.7768  1.8395
   35DOPC  H18S 4782   1.948  -0.370   4.103  1.1435  0.6696  1.2309
   35DOPC  H18T 4783   1.914  -0.380   4.275  0.8824  0.3113 -0.9897
   35DOPC   C33 4784   1.210   0.259   4.947 -0.7019 -0.0857 -0.6213
   35DOPC   H3X 4785   1.176   0.358   4.908  1.9748  1.7164  1.2516
   35DOPC   H3Y 4786   1.143   0.232   5.031 -0.5842 -1.2185 -0.8857
   35DOPC   C34 4787   1.197   0.158   4.830  0.4687 -0.7775  0.0838
   35DOPC   H4X 4788   1.091   0.134   4.803  0.2124  1.2193 -0.9080
   35DOPC   H4Y 4789   1.227   0.060   4.871  2.7117 -1.1754 -2.2547
   35DOPC   C35 4790   1.292   0.186   4.710  0.1599  0.6610  0.2870
   35DOPC   H5X 4791   1.394   0.207   4.749 -0.2121 -0.2184  1.8085
   35DOPC   H5Y 4792   1.252   0.274   4.655 -0.0416  0.1529 -0.4015
   35DOPC   C36 4793   1.281   0.069   4.608  0.1193  0.2866 -0.4271
   35DOPC   H6X 4794   1.300  -0.028   4.659  0.3192  1.3209  1.5571
   35DOPC   H6Y 4795   1.173   0.066   4.582  0.4963 -1.4525 -2.0224
   35DOPC   C37 4796   1.369   0.088   4.485  0.8754 -0.0808 -0.2835
   35DOPC   H7X 4797   1.362   0.189   4.440 -1.2334  0.8990  1.9886
   35DOPC   H7Y 4798   1.467   0.094   4.537  0.0727  0.8461  1.1889
   35DOPC   C38 4799   1.358  -0.029   4.381  0.7998 -0.2847 -0.7071
   35DOPC   H8X 4800   1.332  -0.125   4.430 -1.9590  0.3671 -0.7152
   35DOPC   H8Y 4801   1.460  -0.051   4.342  0.0218 -0.8995 -2.5194
   35DOPC   C39 4802   1.255  -0.001   4.267  0.7167 -0.4637  0.4385
   35DOPC   H9X 4803   1.152   0.019   4.302  0.7432 -0.6544  0.6340
   35DOPC  C310 4804   1.275  -0.001   4.140 -0.4234 -0.1667 -0.6112
   35DOPC  H10X 4805   1.188  -0.001   4.073 -0.9328 -1.1734  0.0166
   35DOPC  C311 4806   1.406  -0.025   4.062  0.3340 -0.7676 -0.1617
   35DOPC  H11X 4807   1.395   0.002   3.954  1.0024 -1.3346 -0.3723
   35DOPC  H11Y 4808   1.439  -0.131   4.068  0.5069 -0.6588  0.9912
   35DOPC  C312 4809   1.527   0.074   4.112  0.4826  0.5652 -0.3869
   35DOPC  H12X 4810   1.575   0.034   4.203  0.6513 -0.4116 -0.8831
   35DOPC  H12Y 4811   1.493   0.178   4.128  0.8001  0.6531 -0.2967
   35DOPC  C313 4812   1.628   0.089   3.996  0.0959 -0.4636 -0.5986
   35DOPC  H13X 4813   1.731   0.054   4.022  0.1649  0.3466  0.2752
   35DOPC  H13Y 4814   1.591   0.045   3.902  2.9938 -2.8167 -0.7891
   35DOPC  C314 4815   1.645   0.235   3.956 -0.5931  0.0108 -0.0201
   35DOPC  H14X 4816   1.716   0.243   3.871 -0.2372 -0.3476  0.2355
   35DOPC  H14Y 4817   1.546   0.267   3.919 -0.0598  0.3798 -1.1905
   35DOPC  C315 4818   1.704   0.322   4.071  0.4103 -0.0221 -0.2608
   35DOPC  H15X 4819   1.793   0.270   4.111 -0.1608 -1.4773 -0.7765
   35DOPC  H15Y 4820   1.629   0.320   4.153  1.6945  0.6752  0.9729
   35DOPC  C316 4821   1.734   0.456   4.020  0.2830  0.1831  0.1460
   35DOPC  H16X 4822   1.665   0.480   3.936  2.7964 -0.4574 -2.2681
   35DOPC  H16Y 4823   1.729   0.521   4.110 -0.0677 -0.4310  0.5723
   35DOPC  C317 4824   1.877   0.467   3.957  0.2527 -0.1124  0.4028
   35DOPC  H17X 4825   1.950   0.424   4.028 -1.0737 -0.0147  1.8850
   35DOPC  H17Y 4826   1.878   0.411   3.861 -1.5304  0.9342 -0.2974
   35DOPC  C318 4827   1.907   0.618   3.924 -0.6966 -0.0889 -0.0658
   35DOPC  H18X 4828   1.914   0.671   4.021 -0.1445 -2.3976  1.2329
   35DOPC  H18Y 4829   2.000   0.609   3.863 -0.6055 -2.4245  0.3240
   35DOPC  H18Z 4830   1.836   0.676   3.862  0.0769 -0.4247 -1.3210
   36DOPC     N 4831   0.063   0.753   5.730  0.0183  0.0033  0.2017
   36DOPC   C12 4832   0.138   0.831   5.617  0.1142 -0.4430 -0.4249
   36DOPC  H12A 4833   0.167   0.927   5.656 -1.6331  0.7335 -1.8938
   36DOPC  H12B 4834   0.068   0.842   5.536 -0.8343 -1.4585  0.2205
   36DOPC   C13 4835   0.156   0.756   5.844  0.5065 -0.8739  0.1385
   36DOPC  H13A 4836   0.247   0.702   5.824  0.2738 -0.7575 -1.3606
   36DOPC  H13B 4837   0.194   0.857   5.851 -0.2255 -0.4900 -1.1291
   36DOPC  H13C 4838   0.113   0.718   5.936 -3.1283  1.5228 -0.3663
   36DOPC   C14 4839   0.030   0.610   5.694  0.6367 -0.4603 -0.3581
   36DOPC  H14A 4840   0.026   0.547   5.782  0.0235  2.0406  1.5128
   36DOPC  H14B 4841  -0.063   0.611   5.639 -1.8599 -1.6894  3.4563
   36DOPC  H14C 4842   0.102   0.565   5.627 -0.0809 -2.3170  0.0421
   36DOPC   C15 4843  -0.064   0.822   5.769  0.7291 -0.0123 -0.0126
   36DOPC  H15A 4844  -0.052   0.929   5.779  2.3620 -0.1476 -0.1262
   36DOPC  H15B 4845  -0.101   0.777   5.860 -0.1542  1.2869  0.2933
   36DOPC  H15C 4846  -0.136   0.809   5.690 -0.9341 -2.2414  1.7480
   36DOPC   C11 4847   0.266   0.767   5.549 -0.0461  0.8498  0.4747
   36DOPC  H11A 4848   0.287   0.823   5.456 -0.7096  1.3094  0.5949
   36DOPC  H11B 4849   0.364   0.778   5.600  1.7522 -0.3812 -2.4954
   36DOPC     P 4850   0.370   0.538   5.467  0.1905  0.2053 -0.2597
   36DOPC   O13 4851   0.321   0.398   5.452 -0.2543  0.1273  1.2179
   36DOPC   O14 4852   0.479   0.566   5.564  0.2594 -0.0322  0.6255
   36DOPC   O12 4853   0.253   0.624   5.510 -0.4538 -0.6416  0.0169
   36DOPC   O11 4854   0.407   0.602   5.331 -0.3335  0.0377 -0.3249
   36DOPC    C1 4855   0.299   0.615   5.236  0.4300 -0.3937  0.5091
   36DOPC    HA 4856   0.197   0.646   5.267  0.5427 -0.4231  0.9064
   36DOPC    HB 4857   0.283   0.518   5.185  1.0218 -0.1550 -0.1578
   36DOPC    C2 4858   0.338   0.701   5.104 -0.0655 -0.4944 -0.1616
   36DOPC    HS 4859   0.257   0.773   5.079 -0.9818 -1.0274  1.1877
   36DOPC   O21 4860   0.373   0.613   4.992  0.2900 -0.0916  0.0667
   36DOPC   C21 4861   0.262   0.575   4.927  0.3971  0.2518  0.3146
   36DOPC   O22 4862   0.152   0.614   4.948 -0.3163  0.6846  0.2127
   36DOPC   C22 4863   0.312   0.481   4.813 -0.3529  0.6524 -0.0420
   36DOPC   H2R 4864   0.418   0.454   4.834 -0.2083  1.5947  0.5176
   36DOPC   H2S 4865   0.304   0.529   4.713  0.9181  1.4003  0.1889
   36DOPC    C3 4866   0.457   0.784   5.132  0.6703  0.4327  0.5418
   36DOPC    HX 4867   0.541   0.712   5.120 -0.4569 -1.5611  3.3857
   36DOPC    HY 4868   0.438   0.817   5.237 -3.6123 -2.9751  1.1574
   36DOPC   O31 4869   0.470   0.901   5.043 -0.7145  0.1359 -0.6776
   36DOPC   C31 4870   0.400   1.012   5.074  0.4463 -0.6235  0.3290
   36DOPC   O32 4871   0.326   1.016   5.172  0.5050 -0.0448 -0.1293
   36DOPC   C32 4872   0.415   1.114   4.971 -0.4229  0.4448  0.9555
   36DOPC   H2X 4873   0.354   1.204   4.995 -0.6362  0.3939  0.6193
   36DOPC   H2Y 4874   0.522   1.146   4.971  0.0743 -1.1054  1.8912
   36DOPC   C23 4875   0.233   0.347   4.816 -0.8706  0.2624 -1.6680
   36DOPC   H3R 4876   0.291   0.276   4.752  1.3302 -0.0769  0.5700
   36DOPC   H3S 4877   0.129   0.350   4.775 -1.5212 -1.0237 -0.1984
   36DOPC   C24 4878   0.232   0.278   4.957  0.3938 -0.3872  0.7632
   36DOPC   H4R 4879   0.183   0.350   5.026 -0.5111 -0.0669 -0.1853
   36DOPC   H4S 4880   0.335   0.252   4.990  1.1748  1.0196 -0.4836
   36DOPC   C25 4881   0.158   0.148   4.948  0.5179  1.0532 -0.6110
   36DOPC   H5R 4882   0.210   0.083   4.875  1.2207  2.1733 -1.1450
   36DOPC   H5S 4883   0.059   0.163   4.900  0.2535 -0.3782 -0.5388
   36DOPC   C26 4884   0.156   0.054   5.076  0.1069  0.5112 -0.1343
   36DOPC   H6R 4885   0.141   0.124   5.161 -0.6823  2.5934 -1.9039
   36DOPC   H6S 4886   0.260   0.020   5.096 -0.5912 -0.5556  1.9466
   36DOPC   C27 4887   0.047  -0.048   5.077 -1.0760  0.3650  0.0722
   36DOPC   H7R 4888   0.060  -0.123   4.996 -0.9334  0.1308  0.3099
   36DOPC   H7S 4889  -0.043   0.014   5.055 -1.6373 -1.4359 -3.4661
   36DOPC   C28 4890   0.032  -0.135   5.208  0.3174 -0.0487 -0.4045
   36DOPC   H8R 4891  -0.057  -0.201   5.196 -1.9310  2.7136 -0.1224
   36DOPC   H8S 4892  -0.012  -0.060   5.278 -0.8511 -1.3878  0.3458
   36DOPC   C29 4893   0.157  -0.210   5.255  0.4751 -0.1576  0.2033
   36DOPC   H9R 4894   0.248  -0.151   5.273  1.3170 -0.6982 -1.9575
   36DOPC  C210 4895   0.188  -0.337   5.224  0.2399  0.0291 -0.0930
   36DOPC  H10R 4896   0.272  -0.383   5.277 -2.3584 -2.3145  2.3611
   36DOPC  C211 4897   0.095  -0.434   5.147  0.0612  0.3635  0.1977
   36DOPC  H11R 4898   0.027  -0.375   5.082 -0.2368 -1.0783 -0.8508
   36DOPC  H11S 4899   0.037  -0.509   5.206 -0.1353  0.6265  0.3405
   36DOPC  C212 4900   0.178  -0.523   5.043  0.0308 -0.4712 -0.3386
   36DOPC  H12R 4901   0.105  -0.597   5.005 -1.2654  1.2336 -1.3129
   36DOPC  H12S 4902   0.245  -0.582   5.110 -0.7138 -2.5470 -1.3494
   36DOPC  C213 4903   0.256  -0.450   4.935  0.3129  0.8124  0.1710
   36DOPC  H13R 4904   0.333  -0.519   4.895  2.9763  1.9463  2.9648
   36DOPC  H13S 4905   0.328  -0.377   4.979  2.1072 -1.7629  1.8114
   36DOPC  C214 4906   0.172  -0.407   4.814  0.5538  0.0465 -0.8042
   36DOPC  H14R 4907   0.090  -0.337   4.842 -0.2501 -1.6142  1.2372
   36DOPC  H14S 4908   0.118  -0.492   4.767 -1.9202  0.5034  0.9855
   36DOPC  C215 4909   0.259  -0.339   4.707  0.4100 -0.6010 -0.0618
   36DOPC  H15R 4910   0.342  -0.409   4.682 -0.6112 -2.3958  1.3270
   36DOPC  H15S 4911   0.289  -0.238   4.741 -0.4527  0.0298 -1.1364
   36DOPC  C216 4912   0.178  -0.323   4.577 -0.2925 -0.7163  1.0726
   36DOPC  H16R 4913   0.090  -0.259   4.600 -0.0344 -0.6454  1.9110
   36DOPC  H16S 4914   0.140  -0.422   4.543 -2.1411  0.0265  0.8471
   36DOPC  C217 4915   0.245  -0.248   4.462  0.5763  0.2260  0.6034
   36DOPC  H17R 4916   0.324  -0.310   4.415  0.3691  0.3601  0.0756
   36DOPC  H17S 4917   0.295  -0.155   4.496  2.2897 -1.1626  2.0886
   36DOPC  C218 4918   0.137  -0.211   4.360  0.0850 -1.0955  0.6915
   36DOPC  H18R 4919   0.066  -0.142   4.411  1.2809 -0.2649  1.2675
   36DOPC  H18S 4920   0.072  -0.294   4.325 -1.6386  0.4477  0.0657
   36DOPC  H18T 4921   0.182  -0.167   4.269  0.0133 -0.8397  0.7790
   36DOPC   C33 4922   0.379   1.059   4.825 -0.0458  0.4014 -0.5199
   36DOPC   H3X 4923   0.462   0.991   4.799  2.2217  1.3847  3.3314
   36DOPC   H3Y 4924   0.390   1.140   4.751  0.0924  0.5459 -0.3440
   36DOPC   C34 4925   0.242   0.991   4.832  0.4500  0.1631 -0.1245
   36DOPC   H4X 4926   0.170   1.072   4.858  0.0511 -0.1898 -0.1151
   36DOPC   H4Y 4927   0.230   0.914   4.911  1.3643  0.0354 -0.1001
   36DOPC   C35 4928   0.197   0.917   4.703  0.3470 -0.5721 -0.0090
   36DOPC   H5X 4929   0.249   0.821   4.684 -1.9343 -1.8822 -0.0812
   36DOPC   H5Y 4930   0.225   0.997   4.631  3.5101  2.4389  4.0395
   36DOPC   C36 4931   0.055   0.870   4.693  0.4753  0.4032 -0.8126
   36DOPC   H6X 4932   0.025   0.823   4.788 -0.4044  2.2705 -0.1153
   36DOPC   H6Y 4933  -0.013   0.957   4.678 -0.6652 -0.6508 -1.9973
   36DOPC   C37 4934   0.038   0.772   4.573  0.4408  0.0674 -0.0201
   36DOPC   H7X 4935   0.104   0.684   4.567 -1.5898 -1.4819 -1.1845
   36DOPC   H7Y 4936  -0.063   0.725   4.580  0.9971 -0.9908  1.2318
   36DOPC   C38 4937   0.043   0.840   4.438  0.2382 -1.0561  0.2522
   36DOPC   H8X 4938   0.138   0.893   4.419  0.1743 -0.4842  1.4431
   36DOPC   H8Y 4939  -0.033   0.920   4.457  0.0176 -1.0416 -0.6386
   36DOPC   C39 4940  -0.012   0.760   4.326  0.1800 -0.3700 -0.7013
   36DOPC   H9X 4941  -0.119   0.738   4.343 -0.5471  0.9781 -3.0148
   36DOPC  C310 4942   0.049   0.712   4.223  1.1318  0.3006 -0.2666
   36DOPC  H10X 4943  -0.022   0.658   4.159 -0.0401  2.5491 -0.9876
   36DOPC  C311 4944   0.199   0.724   4.189  0.3619 -0.5780  0.5590
   36DOPC  H11X 4945   0.248   0.819   4.221  0.5993  0.1986 -1.9453
   36DOPC  H11Y 4946   0.209   0.746   4.081  1.3113  0.6324  0.8595
   36DOPC  C312 4947   0.277   0.606   4.239 -0.1121  0.2109 -0.3129
   36DOPC  H12X 4948   0.212   0.521   4.208 -1.7558  1.7570 -1.2453
   36DOPC  H12Y 4949   0.278   0.595   4.349 -1.5151  0.0393 -0.3105
   36DOPC  C313 4950   0.422   0.588   4.184 -0.4171  0.2809  0.1090
   36DOPC  H13X 4951   0.450   0.695   4.169 -1.5351  0.6581  0.6136
   36DOPC  H13Y 4952   0.485   0.533   4.257 -0.4359  0.7629  0.4939
   36DOPC  C314 4953   0.421   0.517   4.048 -0.3832 -0.8245 -0.8329
   36DOPC  H14X 4954   0.368   0.419   4.046 -2.2800  0.0933  0.8634
   36DOPC  H14Y 4955   0.366   0.589   3.983  0.9368 -1.0718 -2.2992
   36DOPC  C315 4956   0.560   0.477   3.992  0.0129  0.1914  0.3325
   36DOPC  H15X 4957   0.544   0.402   3.912  1.2827  0.8004 -0.5267
   36DOPC  H15Y 4958   0.614   0.414   4.067  1.4941  2.2198  1.0417
   36DOPC  C316 4959   0.628   0.604   3.946 -0.1878 -0.0922  0.8383
   36DOPC  H16X 4960   0.568   0.640   3.860  4.1319  0.6556 -2.2009
   36DOPC  H16Y 4961   0.623   0.672   4.034  2.8125  0.9068  0.3658
   36DOPC  C317 4962   0.767   0.586   3.890 -0.0022  0.6343 -0.0814
   36DOPC  H17X 4963   0.833   0.561   3.976 -2.0701 -1.5479  0.9806
   36DOPC  H17Y 4964   0.767   0.490   3.835 -1.2493  0.6874 -0.1933
   36DOPC  C318 4965   0.823   0.699   3.809  0.3478  0.5816 -0.3299
   36DOPC  H18X 4966   0.827   0.792   3.871 -1.0472  0.4639 -0.0430
   36DOPC  H18Y 4967   0.927   0.664   3.789 -1.0920 -4.4786 -0.1347
   36DOPC  H18Z 4968   0.771   0.712   3.712  0.1641 -2.2786 -0.6886
   37DOPC     N 4969   4.947   1.647   5.998 -0.3086  0.1117 -0.0390
   37DOPC   C12 4970   5.000   1.601   5.864 -0.0820  0.4918 -0.7248
   37DOPC  H12A 4971   4.922   1.591   5.790 -1.5572  3.1654  0.3061
   37DOPC  H12B 4972   5.051   1.507   5.869  0.4766  0.8523  1.0282
   37DOPC   C13 4973   4.888   1.784   5.995  0.4034  0.0194  0.3305
   37DOPC  H13A 4974   4.848   1.808   6.093 -2.2870 -1.2705 -0.3385
   37DOPC  H13B 4975   4.948   1.869   5.967 -0.2422  1.7267  3.6065
   37DOPC  H13C 4976   4.800   1.786   5.932 -0.4869 -1.1515  1.4814
   37DOPC   C14 4977   5.051   1.642   6.110 -0.0059  0.1113  0.7119
   37DOPC  H14A 4978   5.125   1.718   6.091 -1.0936  0.8784 -0.6215
   37DOPC  H14B 4979   5.014   1.664   6.209 -2.6268  0.2756 -0.2225
   37DOPC  H14C 4980   5.102   1.546   6.109  1.0538  0.6613  0.3648
   37DOPC   C15 4981   4.834   1.549   6.035 -0.1591  0.1165 -0.8168
   37DOPC  H15A 4982   4.870   1.455   6.073 -0.5444 -0.1543 -1.1126
   37DOPC  H15B 4983   4.762   1.521   5.959 -4.5741 -1.4722  3.4306
   37DOPC  H15C 4984   4.777   1.579   6.121 -1.9415  0.3342 -2.0135
   37DOPC   C11 4985   5.102   1.699   5.797 -0.5131 -1.2777 -0.4581
   37DOPC  H11A 4986   5.132   1.651   5.702 -3.4231  0.2515 -2.2954
   37DOPC  H11B 4987   5.051   1.794   5.771  0.9924  0.5786  2.7817
   37DOPC     P 4988   5.367   1.688   5.862  0.3732 -0.5550  0.2479
   37DOPC   O13 4989   5.369   1.543   5.867 -0.5710 -0.1736  0.4644
   37DOPC   O14 4990   5.455   1.757   5.958  0.3793 -0.2110 -0.8667
   37DOPC   O12 4991   5.219   1.736   5.878 -0.3803 -0.7106 -0.0602
   37DOPC   O11 4992   5.409   1.733   5.715  0.4274 -0.6985  0.7137
   37DOPC    C1 4993   5.540   1.700   5.672  0.4995  0.2552 -0.3573
   37DOPC    HA 4994   5.586   1.632   5.747 -2.5124 -0.4234  1.0552
   37DOPC    HB 4995   5.605   1.790   5.672 -0.2234  0.8531  1.8806
   37DOPC    C2 4996   5.549   1.638   5.531  0.1010  0.3508  0.4381
   37DOPC    HS 4997   5.651   1.596   5.519 -0.3753 -0.6865 -0.0128
   37DOPC   O21 4998   5.518   1.739   5.429 -0.1660  0.7105  0.0816
   37DOPC   C21 4999   5.605   1.823   5.400  0.1403  0.2519 -0.4452
   37DOPC   O22 5000   5.717   1.836   5.451  0.0700  0.5016  0.1036
   37DOPC   C22 5001   5.556   1.922   5.283  0.2280  0.1185 -0.9646
   37DOPC   H2R 5002   5.652   1.947   5.233  1.2353 -0.1179  0.7671
   37DOPC   H2S 5003   5.515   2.010   5.337  2.0271 -1.6602  3.8439
   37DOPC    C3 5004   5.443   1.523   5.529  0.2985  0.2758 -0.4258
   37DOPC    HX 5005   5.342   1.560   5.556 -0.3528 -0.5125 -1.6800
   37DOPC    HY 5006   5.462   1.448   5.609  0.5394  0.0809 -0.6624
   37DOPC   O31 5007   5.457   1.454   5.403 -0.6730  0.0371 -0.6155
   37DOPC   C31 5008   5.368   1.485   5.316 -0.0304 -1.0977 -1.2080
   37DOPC   O32 5009   5.280   1.569   5.333  0.3435 -0.4326 -0.1208
   37DOPC   C32 5010   5.398   1.407   5.187 -0.2989 -0.0131 -0.2505
   37DOPC   H2X 5011   5.376   1.470   5.098 -2.6320  0.5788  0.6782
   37DOPC   H2Y 5012   5.504   1.374   5.195 -1.0111 -2.7021 -1.1413
   37DOPC   C23 5013   5.447   1.856   5.192  0.0623  0.1593  0.2086
   37DOPC   H3R 5014   5.396   1.939   5.138  0.3207  0.5780  0.6033
   37DOPC   H3S 5015   5.362   1.818   5.253  1.4429  0.8618  2.7339
   37DOPC   C24 5016   5.504   1.757   5.091  0.7649 -0.0598  0.4050
   37DOPC   H4R 5017   5.539   1.664   5.141  0.0510 -0.7260 -0.3104
   37DOPC   H4S 5018   5.583   1.809   5.033 -0.4198 -0.6924 -1.9083
   37DOPC   C25 5019   5.401   1.717   4.995  0.0297  0.3647 -0.6505
   37DOPC   H5R 5020   5.364   1.811   4.950 -2.0345  0.6266  1.3638
   37DOPC   H5S 5021   5.310   1.690   5.053 -0.2993 -1.7690 -2.0697
   37DOPC   C26 5022   5.434   1.622   4.883 -0.6117 -0.9472  0.0535
   37DOPC   H6R 5023   5.479   1.530   4.927  1.0996 -0.4858 -0.6211
   37DOPC   H6S 5024   5.526   1.661   4.833 -0.8378  0.9304  1.0322
   37DOPC   C27 5025   5.321   1.604   4.788 -0.1591 -0.1857  1.1749
   37DOPC   H7R 5026   5.271   1.700   4.761 -0.5765 -0.6578  0.2294
   37DOPC   H7S 5027   5.247   1.551   4.851 -1.2145  1.2334  1.1775
   37DOPC   C28 5028   5.380   1.528   4.665  0.4604  0.1491 -0.1058
   37DOPC   H8R 5029   5.440   1.438   4.691 -0.6740 -0.8210 -0.7173
   37DOPC   H8S 5030   5.452   1.603   4.626  0.3222  0.6786  0.6327
   37DOPC   C29 5031   5.255   1.481   4.584 -0.1953  0.3109 -0.0475
   37DOPC   H9R 5032   5.163   1.538   4.604  0.4131  1.8017 -1.3208
   37DOPC  C210 5033   5.249   1.382   4.493  0.8697 -0.2554 -0.0369
   37DOPC  H10R 5034   5.164   1.364   4.426 -0.2401 -2.4435  1.7963
   37DOPC  C211 5035   5.363   1.291   4.455 -0.3094  0.0405  0.5655
   37DOPC  H11R 5036   5.327   1.186   4.453 -1.1618  0.3306  0.4417
   37DOPC  H11S 5037   5.440   1.285   4.535 -0.6433 -1.0955  0.8214
   37DOPC  C212 5038   5.436   1.317   4.326 -0.5345 -0.2086 -0.9378
   37DOPC  H12R 5039   5.521   1.247   4.337 -2.0371 -1.8129  1.4647
   37DOPC  H12S 5040   5.472   1.422   4.319 -0.9927  0.0107 -0.1215
   37DOPC  C213 5041   5.360   1.291   4.189 -0.1328  0.3690 -0.4327
   37DOPC  H13R 5042   5.279   1.367   4.187 -0.0546  0.6482  2.2557
   37DOPC  H13S 5043   5.327   1.186   4.176 -1.4387  0.6835  0.1300
   37DOPC  C214 5044   5.463   1.326   4.078  0.3782 -0.4816  0.2699
   37DOPC  H14R 5045   5.551   1.258   4.083  0.9442  0.2274  0.1382
   37DOPC  H14S 5046   5.502   1.427   4.103 -1.9385 -0.0434  2.4710
   37DOPC  C215 5047   5.402   1.313   3.935  0.7940 -0.0333 -0.0654
   37DOPC  H15R 5048   5.304   1.362   3.919  1.1025  1.1834  1.5662
   37DOPC  H15S 5049   5.380   1.204   3.928  1.7707 -0.6674  4.1481
   37DOPC  C216 5050   5.510   1.357   3.829  0.6299 -0.4563 -0.4024
   37DOPC  H16R 5051   5.598   1.290   3.845  1.9496  0.8556 -1.7964
   37DOPC  H16S 5052   5.539   1.462   3.851 -0.7679 -0.4781  1.8019
   37DOPC  C217 5053   5.450   1.328   3.694  0.3332 -0.3094  0.6767
   37DOPC  H17R 5054   5.356   1.385   3.680  1.0996  0.9941  0.6745
   37DOPC  H17S 5055   5.422   1.220   3.688 -0.3539 -0.0432 -1.8943
   37DOPC  C218 5056   5.541   1.365   3.582  0.1854 -0.0191  0.9917
   37DOPC  H18R 5057   5.632   1.302   3.574  1.6607  2.1003  0.0339
   37DOPC  H18S 5058   5.571   1.471   3.600  0.7941  0.0800 -0.4836
   37DOPC  H18T 5059   5.488   1.362   3.485 -0.6908 -0.5946  1.4814
   37DOPC   C33 5060   5.318   1.283   5.173 -0.3331  0.3670 -0.3372
   37DOPC   H3X 5061   5.212   1.315   5.178 -0.8934 -1.4493  0.2220
   37DOPC   H3Y 5062   5.329   1.211   5.256 -0.2700  0.1628 -0.5208
   37DOPC   C34 5063   5.350   1.230   5.033  0.7147 -0.3386 -0.4455
   37DOPC   H4X 5064   5.382   1.309   4.962  1.5073 -1.0312 -0.8758
   37DOPC   H4Y 5065   5.251   1.194   4.998 -0.1084  1.5778 -0.2117
   37DOPC   C35 5066   5.463   1.128   5.046 -0.3161 -0.1930 -0.1637
   37DOPC   H5X 5067   5.434   1.059   5.129  0.0956  0.3062  0.3979
   37DOPC   H5Y 5068   5.553   1.185   5.077  0.0329 -0.6063 -0.4132
   37DOPC   C36 5069   5.501   1.072   4.911  0.2111 -0.0666  0.6519
   37DOPC   H6X 5070   5.420   1.035   4.844  1.8019 -0.5173 -1.0884
   37DOPC   H6Y 5071   5.554   1.148   4.849  1.3309 -1.7559 -0.5574
   37DOPC   C37 5072   5.607   0.963   4.914  0.5715  0.1124  0.5569
   37DOPC   H7X 5073   5.686   0.995   4.985 -0.5430  0.5858  1.6196
   37DOPC   H7Y 5074   5.570   0.869   4.960  0.9188 -1.4742 -2.1455
   37DOPC   C38 5075   5.662   0.938   4.775  0.0897 -0.3095  0.1131
   37DOPC   H8X 5076   5.685   1.036   4.728 -1.6767 -0.0837 -0.3523
   37DOPC   H8Y 5077   5.587   0.897   4.703  1.6515 -0.8808 -1.2561
   37DOPC   C39 5078   5.789   0.856   4.754 -0.1155  0.6121  0.1482
   37DOPC   H9X 5079   5.889   0.902   4.764  1.5972 -1.4356 -4.5719
   37DOPC  C310 5080   5.792   0.724   4.734  0.7315 -0.7901 -0.2052
   37DOPC  H10X 5081   5.892   0.680   4.727  0.1286 -2.3573  0.5516
   37DOPC  C311 5082   5.677   0.630   4.724  0.8286  0.1258 -0.1299
   37DOPC  H11X 5083   5.581   0.671   4.686 -0.2095 -2.1974 -0.2034
   37DOPC  H11Y 5084   5.646   0.603   4.827 -0.2169  2.5792  0.2586
   37DOPC  C312 5085   5.707   0.494   4.648 -0.3838 -0.3832  1.1700
   37DOPC  H12X 5086   5.641   0.420   4.698 -2.7044  0.0164 -1.0865
   37DOPC  H12Y 5087   5.816   0.474   4.651  0.0293  0.9145 -1.7497
   37DOPC  C313 5088   5.667   0.495   4.498 -0.1953  0.2300 -0.6140
   37DOPC  H13X 5089   5.557   0.512   4.494 -0.2559 -0.2821 -1.3043
   37DOPC  H13Y 5090   5.721   0.576   4.446 -1.8981  2.1649  0.4662
   37DOPC  C314 5091   5.699   0.358   4.442  0.5912  0.2760 -0.1308
   37DOPC  H14X 5092   5.808   0.352   4.422  0.5697 -1.1705  0.0953
   37DOPC  H14Y 5093   5.662   0.282   4.513 -0.2239  0.4054 -0.4070
   37DOPC  C315 5094   5.638   0.333   4.306  0.4633 -0.1201 -0.5834
   37DOPC  H15X 5095   5.661   0.230   4.271  0.6514 -0.0013 -0.8124
   37DOPC  H15Y 5096   5.674   0.407   4.231  0.3250  1.3480  0.7273
   37DOPC  C316 5097   5.483   0.346   4.295 -0.1368  0.3128  0.2274
   37DOPC  H16X 5098   5.443   0.259   4.350  1.4514 -0.9340 -0.4990
   37DOPC  H16Y 5099   5.440   0.426   4.359 -1.5979 -1.0033  0.9347
   37DOPC  C317 5100   5.434   0.355   4.155 -0.6403 -0.1263  0.8888
   37DOPC  H17X 5101   5.324   0.344   4.152 -0.7395  0.9976  0.1442
   37DOPC  H17Y 5102   5.457   0.460   4.127 -0.9293 -0.4945 -0.8299
   37DOPC  C318 5103   5.504   0.262   4.056 -0.4575  0.1511  0.4059
   37DOPC  H18X 5104   5.476   0.296   3.954 -2.1242  0.8977  1.0818
   37DOPC  H18Y 5105   5.612   0.270   4.081 -0.6847 -0.5936  1.7123
   37DOPC  H18Z 5106   5.465   0.159   4.067  1.7821 -0.8906 -0.6511
   38DOPC     N 5107   4.474  -0.117   6.489  0.4302 -0.1527  0.0071
   38DOPC   C12 5108   4.601  -0.126   6.407 -0.4579  0.2129 -0.2384
   38DOPC  H12A 5109   4.600  -0.200   6.329  2.5263 -0.7456  0.5033
   38DOPC  H12B 5110   4.671  -0.177   6.472 -0.7872 -1.0021 -0.8040
   38DOPC   C13 5111   4.422  -0.242   6.552  0.1010  0.6888 -0.3102
   38DOPC  H13A 5112   4.398  -0.309   6.471  1.1952  1.6828 -1.5117
   38DOPC  H13B 5113   4.495  -0.276   6.625 -0.5039  2.3419  1.1333
   38DOPC  H13C 5114   4.339  -0.220   6.617  1.3304 -0.4533  1.7872
   38DOPC   C14 5115   4.359  -0.060   6.412 -0.1225  0.7295 -0.1223
   38DOPC  H14A 5116   4.284  -0.034   6.485 -1.7085  1.4993 -1.9506
   38DOPC  H14B 5117   4.402   0.022   6.357  0.3806  1.1611  0.8892
   38DOPC  H14C 5118   4.326  -0.141   6.348  1.8808 -0.8230  0.6953
   38DOPC   C15 5119   4.494  -0.018   6.599 -0.3341 -0.6833  0.6400
   38DOPC  H15A 5120   4.408  -0.015   6.663 -0.5969 -0.6521  0.2871
   38DOPC  H15B 5121   4.519   0.075   6.550 -1.6396  0.3189  1.8344
   38DOPC  H15C 5122   4.579  -0.039   6.663  0.6271  0.8174 -0.0857
   38DOPC   C11 5123   4.671  -0.005   6.351 -0.3831  0.0756  0.5030
   38DOPC  H11A 5124   4.730   0.055   6.425  0.3648 -0.6378  0.4987
   38DOPC  H11B 5125   4.738  -0.044   6.271 -0.8320  1.6079 -0.6624
   38DOPC     P 5126   4.626   0.239   6.262  0.3606 -0.3425 -0.1768
   38DOPC   O13 5127   4.669   0.312   6.389  0.0203  0.9377 -0.1447
   38DOPC   O14 5128   4.521   0.297   6.174  0.5303 -0.0074 -0.1950
   38DOPC   O12 5129   4.578   0.090   6.296 -0.0042  0.5029  0.0245
   38DOPC   O11 5130   4.759   0.225   6.181  0.1452  0.5482 -0.4458
   38DOPC    C1 5131   4.774   0.302   6.067  0.5054 -0.4218  0.4069
   38DOPC    HA 5132   4.880   0.296   6.032 -0.4793  1.3125 -3.4529
   38DOPC    HB 5133   4.754   0.411   6.077 -0.1811 -0.2290 -2.1965
   38DOPC    C2 5134   4.703   0.251   5.937 -1.0250 -0.3155  0.4872
   38DOPC    HS 5135   4.593   0.238   5.943 -0.9920 -1.7680 -1.1585
   38DOPC   O21 5136   4.765   0.124   5.907  0.0364  0.3419 -0.9034
   38DOPC   C21 5137   4.682   0.020   5.900  1.0208 -0.1541 -0.5036
   38DOPC   O22 5138   4.564   0.022   5.929 -0.3791 -0.5052 -0.0047
   38DOPC   C22 5139   4.765  -0.113   5.874  0.1330 -0.5226  0.1242
   38DOPC   H2R 5140   4.824  -0.123   5.968  0.3341  1.4520  0.2634
   38DOPC   H2S 5141   4.838  -0.095   5.793  0.6734 -3.4306 -0.1382
   38DOPC    C3 5142   4.740   0.351   5.819 -0.2884  0.1070 -0.1584
   38DOPC    HX 5143   4.845   0.339   5.785 -0.2209  1.1939 -0.3888
   38DOPC    HY 5144   4.731   0.457   5.854 -2.4752 -0.4227  1.0656
   38DOPC   O31 5145   4.662   0.334   5.700 -0.1176  0.5506 -0.4131
   38DOPC   C31 5146   4.532   0.372   5.721 -0.0517 -0.1675  0.6064
   38DOPC   O32 5147   4.489   0.418   5.827  0.0870 -0.4868 -0.3806
   38DOPC   C32 5148   4.453   0.372   5.595 -0.1523  0.5621 -0.0004
   38DOPC   H2X 5149   4.353   0.328   5.611  0.9785 -2.5371 -0.5942
   38DOPC   H2Y 5150   4.459   0.475   5.553  1.7547 -0.5954 -2.9402
   38DOPC   C23 5151   4.681  -0.237   5.837  0.6421  0.1497  0.2565
   38DOPC   H3R 5152   4.592  -0.238   5.903  0.5561  0.0867  0.1387
   38DOPC   H3S 5153   4.748  -0.325   5.852 -0.1052 -0.2544  1.4031
   38DOPC   C24 5154   4.625  -0.230   5.689 -0.7969 -0.2515 -0.0745
   38DOPC   H4R 5155   4.571  -0.134   5.669  0.6242  0.9769  1.6515
   38DOPC   H4S 5156   4.553  -0.311   5.664  1.0191 -2.0011  0.1610
   38DOPC   C25 5157   4.726  -0.231   5.572 -0.1587 -0.3197 -0.2917
   38DOPC   H5R 5158   4.818  -0.290   5.589  0.1309  0.1951 -0.0783
   38DOPC   H5S 5159   4.760  -0.127   5.555 -1.8782  0.2804 -0.3219
   38DOPC   C26 5160   4.665  -0.285   5.440 -0.3135 -0.4003 -0.3251
   38DOPC   H6R 5161   4.564  -0.242   5.428  0.0278  0.7272  0.6427
   38DOPC   H6S 5162   4.643  -0.393   5.456 -0.9430 -0.0741  1.1550
   38DOPC   C27 5163   4.746  -0.260   5.312 -0.1902  0.0610 -0.0821
   38DOPC   H7R 5164   4.843  -0.316   5.313 -1.5589 -2.4752 -0.2664
   38DOPC   H7S 5165   4.762  -0.150   5.311 -0.5470  0.1157  0.1005
   38DOPC   C28 5166   4.681  -0.298   5.178 -0.0142 -0.3706  0.6394
   38DOPC   H8R 5167   4.756  -0.284   5.097  0.5487 -0.7295  1.0976
   38DOPC   H8S 5168   4.608  -0.216   5.158 -0.2505  0.0729  3.0237
   38DOPC   C29 5169   4.606  -0.424   5.191 -0.4364  0.2986 -0.3648
   38DOPC   H9R 5170   4.521  -0.411   5.260 -0.4434  0.0989 -0.3383
   38DOPC  C210 5171   4.622  -0.544   5.127 -0.8922  0.0854 -0.2582
   38DOPC  H10R 5172   4.559  -0.629   5.153  2.1373 -2.2854 -0.1315
   38DOPC  C211 5173   4.740  -0.568   5.040  0.2637  0.0744  0.2236
   38DOPC  H11R 5174   4.789  -0.662   5.075  0.2487  0.5101  1.4388
   38DOPC  H11S 5175   4.826  -0.499   5.054  1.2505 -1.2903  1.2403
   38DOPC  C212 5176   4.701  -0.573   4.893  0.0003 -0.5818 -0.3235
   38DOPC  H12R 5177   4.795  -0.576   4.835 -0.2572 -3.7528 -0.7294
   38DOPC  H12S 5178   4.649  -0.482   4.856 -0.5147 -1.1623 -1.0595
   38DOPC  C213 5179   4.622  -0.697   4.842 -0.2230 -0.3679  0.3119
   38DOPC  H13R 5180   4.528  -0.690   4.902  1.3868  2.9356  2.7303
   38DOPC  H13S 5181   4.672  -0.790   4.875  0.1021  0.6180  2.8308
   38DOPC  C214 5182   4.589  -0.706   4.694 -0.6350  0.3363 -0.3025
   38DOPC  H14R 5183   4.525  -0.793   4.669  1.4096 -1.6625  1.0696
   38DOPC  H14S 5184   4.684  -0.729   4.641  0.5722 -0.0424  1.9470
   38DOPC  C215 5185   4.513  -0.586   4.633 -0.6312 -0.1885 -0.3171
   38DOPC  H15R 5186   4.591  -0.508   4.627 -0.9668  0.0733 -1.6193
   38DOPC  H15S 5187   4.436  -0.547   4.704 -1.3406  2.1336 -2.2322
   38DOPC  C216 5188   4.454  -0.623   4.495 -0.4754 -0.6243  0.1808
   38DOPC  H16R 5189   4.525  -0.698   4.454  1.2873  0.9490  0.2097
   38DOPC  H16S 5190   4.454  -0.528   4.437  0.8933 -1.0460 -0.5373
   38DOPC  C217 5191   4.318  -0.676   4.514  0.8838  0.1875  1.0627
   38DOPC  H17R 5192   4.243  -0.594   4.510  0.6779  0.1991  3.5680
   38DOPC  H17S 5193   4.304  -0.734   4.607  1.1414  1.4649  1.9323
   38DOPC  C218 5194   4.282  -0.766   4.399 -0.4259 -0.4173 -0.3699
   38DOPC  H18R 5195   4.175  -0.793   4.409 -1.0337  1.6621 -0.8061
   38DOPC  H18S 5196   4.353  -0.852   4.404 -1.3746 -1.2446 -0.9189
   38DOPC  H18T 5197   4.290  -0.717   4.299 -0.5820  1.1512  0.3657
   38DOPC   C33 5198   4.521   0.303   5.478 -0.4744 -0.4005  0.1163
   38DOPC   H3X 5199   4.544   0.197   5.502  0.6243 -0.3395 -0.6425
   38DOPC   H3Y 5200   4.621   0.344   5.454 -0.5303 -0.4190 -0.1464
   38DOPC   C34 5201   4.447   0.318   5.345 -0.5165 -0.3441 -0.2975
   38DOPC   H4X 5202   4.439   0.424   5.311  3.8232  0.0886 -0.5818
   38DOPC   H4Y 5203   4.343   0.287   5.367 -0.0186 -2.9080 -1.2368
   38DOPC   C35 5204   4.495   0.253   5.224 -0.8795  0.5043 -0.0736
   38DOPC   H5X 5205   4.524   0.147   5.238 -0.9367  0.7075  1.9355
   38DOPC   H5Y 5206   4.590   0.308   5.208 -0.6494  0.7697  1.9496
   38DOPC   C36 5207   4.397   0.261   5.105  0.7960  0.1962 -0.7074
   38DOPC   H6X 5208   4.313   0.195   5.136  3.2271 -3.0253 -0.4447
   38DOPC   H6Y 5209   4.354   0.362   5.091 -1.1915 -0.6357 -0.8916
   38DOPC   C37 5210   4.456   0.209   4.980 -0.5798 -0.1909  0.2078
   38DOPC   H7X 5211   4.546   0.270   4.954  0.2270 -0.8443  1.4015
   38DOPC   H7Y 5212   4.503   0.110   5.000  2.3433  0.5092 -2.4255
   38DOPC   C38 5213   4.363   0.201   4.862  0.0942 -0.2829 -0.3382
   38DOPC   H8X 5214   4.274   0.143   4.894 -0.1433 -0.5526 -1.4159
   38DOPC   H8Y 5215   4.404   0.130   4.787  2.8088  0.0029  0.7735
   38DOPC   C39 5216   4.317   0.321   4.784 -0.1090  0.8814 -0.3299
   38DOPC   H9X 5217   4.280   0.404   4.846 -1.4693 -0.1419  0.2931
   38DOPC  C310 5218   4.329   0.339   4.656 -0.5935 -0.2279  0.4326
   38DOPC  H10X 5219   4.280   0.430   4.619  0.9684 -0.0409 -1.3271
   38DOPC  C311 5220   4.367   0.235   4.556 -0.2559  0.7373  0.4517
   38DOPC  H11X 5221   4.364   0.137   4.608 -0.6821  1.1618  1.2415
   38DOPC  H11Y 5222   4.472   0.242   4.521 -1.1591  1.5959 -2.3481
   38DOPC  C312 5223   4.275   0.233   4.428  0.3042  0.5660 -0.8403
   38DOPC  H12X 5224   4.168   0.225   4.456  0.9145 -1.2071  1.3521
   38DOPC  H12Y 5225   4.298   0.141   4.370  0.5110 -0.5071  0.8681
   38DOPC  C313 5226   4.291   0.356   4.337 -0.6807 -0.0325 -0.2532
   38DOPC  H13X 5227   4.320   0.443   4.400 -1.2554  1.1064 -1.4954
   38DOPC  H13Y 5228   4.382   0.328   4.281 -1.1665  1.8236 -2.1077
   38DOPC  C314 5229   4.176   0.390   4.245 -0.0420  0.0073  0.8463
   38DOPC  H14X 5230   4.143   0.300   4.190  0.4137 -0.8433  1.9389
   38DOPC  H14Y 5231   4.098   0.431   4.312  1.0412 -0.2613  2.3106
   38DOPC  C315 5232   4.224   0.497   4.146  0.2736 -0.4264 -0.0070
   38DOPC  H15X 5233   4.273   0.580   4.200  0.7183 -0.8505  0.2494
   38DOPC  H15Y 5234   4.134   0.549   4.107  0.1387  0.3376  1.2670
   38DOPC  C316 5235   4.299   0.450   4.024  0.4233 -0.2531 -0.1424
   38DOPC  H16X 5236   4.385   0.385   4.051  3.0391  1.9033 -2.7082
   38DOPC  H16Y 5237   4.232   0.382   3.966 -0.1939  0.0158  0.2371
   38DOPC  C317 5238   4.360   0.563   3.936  0.2568  0.2797  0.1186
   38DOPC  H17X 5239   4.434   0.617   4.000  0.4950 -0.2266  0.2799
   38DOPC  H17Y 5240   4.416   0.519   3.851  0.9252  0.8543  0.2484
   38DOPC  C318 5241   4.250   0.653   3.883 -0.4504  0.8607  0.2353
   38DOPC  H18X 5242   4.198   0.707   3.964 -3.0315 -1.1379  0.0598
   38DOPC  H18Y 5243   4.282   0.726   3.805 -1.1111 -0.0559 -0.9298
   38DOPC  H18Z 5244   4.174   0.587   3.835  1.7420  0.4976 -3.1139
   39DOPC     N 5245   1.334   2.847   5.803  0.0228 -0.0846  0.0300
   39DOPC   C12 5246   1.404   2.786   5.673 -0.2813 -0.4210 -1.2641
   39DOPC  H12A 5247   1.353   2.694   5.650  0.4892 -1.7382  1.7274
   39DOPC  H12B 5248   1.495   2.733   5.698 -0.3992  0.1483  0.5525
   39DOPC   C13 5249   1.426   2.941   5.883  0.2158  0.0588  0.0666
   39DOPC  H13A 5250   1.486   2.996   5.813  0.9909 -0.9470 -0.0856
   39DOPC  H13B 5251   1.362   3.002   5.945 -0.9149 -1.7564  0.7702
   39DOPC  H13C 5252   1.490   2.887   5.951  0.0238 -0.2934 -0.0317
   39DOPC   C14 5253   1.298   2.733   5.887  0.0842  0.0859  0.0712
   39DOPC  H14A 5254   1.255   2.777   5.975  0.1798  2.4281 -0.9742
   39DOPC  H14B 5255   1.217   2.671   5.852 -1.9075  1.5386  1.8131
   39DOPC  H14C 5256   1.380   2.668   5.914 -0.4357 -0.5513  0.1445
   39DOPC   C15 5257   1.193   2.909   5.779  0.4298 -0.3361 -0.5396
   39DOPC  H15A 5258   1.141   2.923   5.872  0.2881  1.4015 -0.8473
   39DOPC  H15B 5259   1.130   2.847   5.716  0.0674 -1.3301  0.7551
   39DOPC  H15C 5260   1.205   3.006   5.733 -2.2876  1.1444  1.5980
   39DOPC   C11 5261   1.424   2.889   5.558  0.7636 -0.0210  0.0021
   39DOPC  H11A 5262   1.480   2.831   5.481  0.2853  2.0966 -2.0866
   39DOPC  H11B 5263   1.322   2.910   5.518  0.3137 -1.8770  0.0854
   39DOPC     P 5264   1.439   3.150   5.579 -0.1599 -0.2072  0.2817
   39DOPC   O13 5265   1.528   3.246   5.652  0.5198  0.0122 -0.0537
   39DOPC   O14 5266   1.297   3.144   5.623 -0.7073 -0.1642  0.0759
   39DOPC   O12 5267   1.503   3.006   5.589  0.1407  0.3365  0.1718
   39DOPC   O11 5268   1.442   3.181   5.420 -0.0546 -0.3797  1.0788
   39DOPC    C1 5269   1.554   3.134   5.333  0.4311 -0.0159  0.5871
   39DOPC    HA 5270   1.560   3.023   5.342 -1.1450 -0.1033  0.8377
   39DOPC    HB 5271   1.651   3.173   5.369  0.7166 -0.2095  0.0473
   39DOPC    C2 5272   1.549   3.175   5.181 -0.5464 -0.7107 -0.4017
   39DOPC    HS 5273   1.654   3.160   5.147  0.3275  1.5447  1.0958
   39DOPC   O21 5274   1.521   3.318   5.168 -0.3517 -0.6327 -0.1041
   39DOPC   C21 5275   1.579   3.404   5.248 -0.4869 -0.2809 -0.0188
   39DOPC   O22 5276   1.691   3.389   5.299  0.0590 -0.3984  1.1591
   39DOPC   C22 5277   1.511   3.549   5.250  0.7566  0.4047  0.5332
   39DOPC   H2R 5278   1.482   3.553   5.357 -1.3495 -1.5455  0.1073
   39DOPC   H2S 5279   1.420   3.543   5.186  1.3014  2.1409 -0.4784
   39DOPC    C3 5280   1.453   3.092   5.088 -0.0796  0.0105  0.4832
   39DOPC    HX 5281   1.478   3.119   4.983  0.1936 -0.9942  0.2814
   39DOPC    HY 5282   1.346   3.121   5.098 -0.4665 -1.5623  1.2444
   39DOPC   O31 5283   1.478   2.951   5.103 -0.3902 -0.2240  0.2641
   39DOPC   C31 5284   1.384   2.891   5.172  0.5385  0.8191 -0.3171
   39DOPC   O32 5285   1.279   2.935   5.210 -0.3147  0.3127 -0.3751
   39DOPC   C32 5286   1.407   2.736   5.164  0.3105 -0.0096 -0.1526
   39DOPC   H2X 5287   1.479   2.716   5.081 -0.8162  2.0289 -1.7116
   39DOPC   H2Y 5288   1.452   2.702   5.260 -1.4970 -0.8683  0.4447
   39DOPC   C23 5289   1.603   3.660   5.217 -0.6331 -0.3062  0.1343
   39DOPC   H3R 5290   1.704   3.650   5.262 -1.2299 -1.9545  1.2218
   39DOPC   H3S 5291   1.555   3.756   5.245 -1.1258 -0.7708  0.9313
   39DOPC   C24 5292   1.626   3.673   5.060  0.2143 -0.5402 -0.1311
   39DOPC   H4R 5293   1.652   3.579   5.007 -0.1717  0.2594 -1.8244
   39DOPC   H4S 5294   1.705   3.748   5.037 -2.8867  3.0562  0.0462
   39DOPC   C25 5295   1.502   3.738   4.993 -0.1853 -0.1844  0.0046
   39DOPC   H5R 5296   1.474   3.826   5.055  0.0938 -0.6586  0.8107
   39DOPC   H5S 5297   1.410   3.678   5.001 -1.3445  1.6730  1.4385
   39DOPC   C26 5298   1.528   3.791   4.852 -0.4227 -0.2338 -0.3172
   39DOPC   H6R 5299   1.631   3.833   4.860 -1.1888  1.8794 -0.8355
   39DOPC   H6S 5300   1.454   3.871   4.829 -0.9303 -1.0236 -1.5410
   39DOPC   C27 5301   1.517   3.695   4.739 -0.3692 -0.8825  0.0553
   39DOPC   H7R 5302   1.410   3.681   4.711 -1.0603  2.3101  0.7017
   39DOPC   H7S 5303   1.547   3.596   4.779 -0.4124 -0.0652  2.2043
   39DOPC   C28 5304   1.619   3.723   4.623  0.7187 -0.1401  0.0211
   39DOPC   H8R 5305   1.621   3.630   4.562 -1.1783  0.5370 -1.1653
   39DOPC   H8S 5306   1.719   3.747   4.666 -0.6727  1.6809  2.4959
   39DOPC   C29 5307   1.573   3.842   4.549 -0.6958 -0.3004  0.3189
   39DOPC   H9R 5308   1.584   3.934   4.608  1.5470 -0.6520  0.5474
   39DOPC  C210 5309   1.513   3.844   4.430  0.0142 -0.4038  0.0479
   39DOPC  H10R 5310   1.485   3.942   4.389 -4.3274 -0.2423  2.7978
   39DOPC  C211 5311   1.474   3.725   4.341 -0.0075  0.3896 -0.1070
   39DOPC  H11R 5312   1.378   3.681   4.372  0.0448 -0.3534 -0.9522
   39DOPC  H11S 5313   1.544   3.641   4.363 -1.1197 -0.1189  1.6541
   39DOPC  C212 5314   1.459   3.740   4.191  0.5135 -0.0352  0.7326
   39DOPC  H12R 5315   1.396   3.832   4.187 -0.0621 -0.3104  2.6085
   39DOPC  H12S 5316   1.411   3.653   4.141 -0.4218  0.2105  1.1783
   39DOPC  C213 5317   1.595   3.751   4.132 -0.5845  0.3999  0.7781
   39DOPC  H13R 5318   1.659   3.661   4.138  1.1947  1.6184  1.0139
   39DOPC  H13S 5319   1.643   3.840   4.179 -1.4865  1.6826 -0.6181
   39DOPC  C214 5320   1.596   3.811   3.991 -0.0487 -0.2058 -0.4484
   39DOPC  H14R 5321   1.594   3.922   3.994 -0.0046 -0.1754 -1.2902
   39DOPC  H14S 5322   1.500   3.793   3.938 -1.3785  1.8057  1.1160
   39DOPC  C215 5323   1.712   3.781   3.896  0.6861  0.2913  0.8592
   39DOPC  H15R 5324   1.725   3.670   3.900 -1.3363  0.0511  2.4857
   39DOPC  H15S 5325   1.803   3.829   3.939  2.1245 -0.5926 -1.0507
   39DOPC  C216 5326   1.689   3.818   3.748  0.0472  0.1377 -0.0160
   39DOPC  H16R 5327   1.657   3.924   3.743  1.2160  0.4697 -1.0186
   39DOPC  H16S 5328   1.601   3.758   3.714 -0.1558 -0.1626  1.0140
   39DOPC  C217 5329   1.804   3.782   3.647  0.4037 -0.5930 -0.6979
   39DOPC  H17R 5330   1.775   3.832   3.552 -1.7221 -1.4404 -0.5603
   39DOPC  H17S 5331   1.802   3.671   3.639  2.6640 -0.6402 -1.1239
   39DOPC  C218 5332   1.938   3.834   3.700 -0.9689 -0.0367  0.0333
   39DOPC  H18R 5333   1.949   3.944   3.709  0.9788 -0.0303 -1.7635
   39DOPC  H18S 5334   2.018   3.805   3.629  0.8626 -0.5604  2.2068
   39DOPC  H18T 5335   1.974   3.785   3.793 -0.4126 -1.1659 -0.7574
   39DOPC   C33 5336   1.271   2.659   5.154  0.1349  0.0607 -0.1764
   39DOPC   H3X 5337   1.186   2.682   5.222 -2.4359 -4.3353 -1.4918
   39DOPC   H3Y 5338   1.293   2.550   5.156 -1.2135 -0.3435 -2.7571
   39DOPC   C34 5339   1.206   2.681   5.011 -0.6135 -0.3406 -0.8631
   39DOPC   H4X 5340   1.283   2.657   4.935  1.6466 -1.1875  1.5392
   39DOPC   H4Y 5341   1.178   2.787   4.994  0.6966  0.2815  0.5446
   39DOPC   C35 5342   1.081   2.594   4.996  0.3625  0.7825  0.6464
   39DOPC   H5X 5343   1.012   2.636   5.073 -2.1612  1.6212 -1.9090
   39DOPC   H5Y 5344   1.105   2.487   5.012 -1.6770  0.0153 -1.0542
   39DOPC   C36 5345   1.011   2.606   4.854 -0.2416 -0.4678 -0.3442
   39DOPC   H6X 5346   0.900   2.603   4.852 -0.3108  1.4343 -0.9968
   39DOPC   H6Y 5347   1.020   2.713   4.826  0.5567 -0.9503 -2.0822
   39DOPC   C37 5348   1.068   2.507   4.744  0.0553 -0.2071 -0.1461
   39DOPC   H7X 5349   1.037   2.542   4.643 -0.5235 -0.4426 -0.0594
   39DOPC   H7Y 5350   1.179   2.514   4.747  0.0174  0.9693 -0.9178
   39DOPC   C38 5351   1.014   2.364   4.762 -0.0567  0.8993  0.0529
   39DOPC   H8X 5352   0.915   2.358   4.713 -1.1336  0.1958  2.1884
   39DOPC   H8Y 5353   1.001   2.340   4.870 -1.1069 -0.7854 -0.4013
   39DOPC   C39 5354   1.101   2.250   4.707 -0.2811  0.1574  0.0814
   39DOPC   H9X 5355   1.208   2.250   4.735 -0.2636 -0.8933  0.0642
   39DOPC  C310 5356   1.079   2.150   4.621 -0.3070  0.1928 -0.5658
   39DOPC  H10X 5357   1.166   2.083   4.612 -0.1725  0.3388 -0.3492
   39DOPC  C311 5358   0.950   2.107   4.559  0.4984 -0.3137 -0.5694
   39DOPC  H11X 5359   0.899   2.192   4.508  0.8870  1.4759  1.8131
   39DOPC  H11Y 5360   0.874   2.075   4.633 -0.9538  1.9140 -1.0050
   39DOPC  C312 5361   0.992   1.992   4.458  0.0667  0.0080 -0.9817
   39DOPC  H12X 5362   1.051   1.911   4.506 -0.8364 -2.3231 -3.5447
   39DOPC  H12Y 5363   1.050   2.048   4.381  2.6913  0.5694  1.2389
   39DOPC  C313 5364   0.872   1.914   4.398 -0.2629  0.0944  0.0208
   39DOPC  H13X 5365   0.802   1.890   4.481  2.0429 -0.2777  1.9670
   39DOPC  H13Y 5366   0.820   1.968   4.316 -0.5959 -1.8199 -1.1119
   39DOPC  C314 5367   0.917   1.776   4.347 -0.5755 -0.2830  0.1071
   39DOPC  H14X 5368   0.991   1.792   4.266 -1.7098  1.1860 -0.6664
   39DOPC  H14Y 5369   0.973   1.716   4.423 -0.6491  2.4531  2.4998
   39DOPC  C315 5370   0.802   1.702   4.290 -0.4398 -0.3965 -0.2425
   39DOPC  H15X 5371   0.768   1.757   4.200 -0.8052  0.0139  0.1443
   39DOPC  H15Y 5372   0.718   1.708   4.363 -1.2086  1.9777 -1.2320
   39DOPC  C316 5373   0.834   1.554   4.249  0.1071  0.5133  0.1823
   39DOPC  H16X 5374   0.869   1.503   4.341 -1.2274 -1.4399 -0.3318
   39DOPC  H16Y 5375   0.734   1.510   4.224  0.5563 -1.3311  1.4190
   39DOPC  C317 5376   0.930   1.544   4.131 -0.2726  0.7584  0.3194
   39DOPC  H17X 5377   0.876   1.599   4.051  1.0224  1.6002  0.0018
   39DOPC  H17Y 5378   1.020   1.597   4.167  0.5105  0.4755 -1.1216
   39DOPC  C318 5379   0.946   1.398   4.089  0.1504  0.0664  0.2794
   39DOPC  H18X 5380   1.020   1.349   4.155  1.7018  2.0544  0.1091
   39DOPC  H18Y 5381   0.849   1.349   4.066 -0.2213  1.1322 -0.5402
   39DOPC  H18Z 5382   1.001   1.401   3.992  1.2297 -1.8910  0.7800
   40DOPC     N 5383   4.905   5.984   6.294 -0.5279  0.1153 -0.3285
   40DOPC   C12 5384   4.996   5.966   6.175 -0.2125 -0.3453 -0.5940
   40DOPC  H12A 5385   4.961   5.879   6.121  2.3646 -0.1406 -2.7825
   40DOPC  H12B 5386   5.096   5.938   6.205 -0.0016 -1.4361 -2.2202
   40DOPC   C13 5387   4.891   5.851   6.377  0.3413  0.0049  0.3397
   40DOPC  H13A 5388   4.828   5.864   6.463 -0.3755 -1.2928  0.0272
   40DOPC  H13B 5389   4.827   5.794   6.312 -0.9560  0.9900  0.7085
   40DOPC  H13C 5390   4.989   5.808   6.393  0.0945 -0.3026  1.0443
   40DOPC   C14 5391   4.776   6.012   6.240 -0.7147  0.4549 -0.1793
   40DOPC  H14A 5392   4.705   6.009   6.322  0.9043 -1.8188  1.2435
   40DOPC  H14B 5393   4.780   6.109   6.193  2.8116  1.1572  1.2714
   40DOPC  H14C 5394   4.750   5.934   6.171 -0.0791  0.8666 -0.8942
   40DOPC   C15 5395   4.950   6.097   6.375 -0.7554  0.3233 -0.0796
   40DOPC  H15A 5396   5.053   6.081   6.404 -0.6171  1.9996  0.4605
   40DOPC  H15B 5397   4.893   6.114   6.465  0.1879  1.0073  0.4156
   40DOPC  H15C 5398   4.961   6.183   6.311  4.7404 -1.1507 -1.6471
   40DOPC   C11 5399   5.019   6.082   6.073  0.1208 -0.7941  0.1548
   40DOPC  H11A 5400   5.072   6.043   5.983  0.3228  0.7281 -0.4178
   40DOPC  H11B 5401   4.920   6.117   6.035  0.2853 -0.1531  0.3087
   40DOPC     P 5402   5.075   6.342   6.085 -0.4937 -0.3564  0.0828
   40DOPC   O13 5403   5.199   6.406   6.128 -0.2594 -0.7406  0.4729
   40DOPC   O14 5404   4.947   6.376   6.150 -0.2661  0.0518  0.1767
   40DOPC   O12 5405   5.105   6.187   6.125 -0.0772  0.2235  0.2034
   40DOPC   O11 5406   5.048   6.339   5.930  0.0623  0.2137 -0.5289
   40DOPC    C1 5407   5.160   6.343   5.837  0.9250 -0.4253 -0.3252
   40DOPC    HA 5408   5.127   6.276   5.754  0.6577 -1.1108  0.3268
   40DOPC    HB 5409   5.246   6.287   5.876  1.8886  1.5021  0.4604
   40DOPC    C2 5410   5.215   6.481   5.791 -0.1353  0.1843  0.2824
   40DOPC    HS 5411   5.242   6.552   5.873  1.6455  1.1985 -1.1098
   40DOPC   O21 5412   5.119   6.531   5.699 -0.2384  1.0322 -0.4062
   40DOPC   C21 5413   5.090   6.659   5.698 -0.6529  0.9330 -0.7290
   40DOPC   O22 5414   5.156   6.745   5.753 -0.0345 -0.4181  0.4504
   40DOPC   C22 5415   4.979   6.696   5.603  0.3298 -0.0355  0.4775
   40DOPC   H2R 5416   4.886   6.731   5.653  0.4494  1.0776 -0.0670
   40DOPC   H2S 5417   4.963   6.600   5.549  1.4673 -0.3357  0.6462
   40DOPC    C3 5418   5.351   6.477   5.720  0.1454 -0.1709  0.1772
   40DOPC    HX 5419   5.432   6.449   5.791  0.9644  1.0493 -0.2457
   40DOPC    HY 5420   5.382   6.580   5.696  2.4222 -0.7558  0.4424
   40DOPC   O31 5421   5.351   6.387   5.608 -0.0949 -0.2300 -0.0798
   40DOPC   C31 5422   5.333   6.439   5.488  0.5317  0.0292 -0.2217
   40DOPC   O32 5423   5.320   6.557   5.461 -0.1854 -0.1717 -0.1792
   40DOPC   C32 5424   5.318   6.335   5.383  0.1132 -0.0128 -0.0412
   40DOPC   H2X 5425   5.407   6.270   5.371 -0.4733 -0.5050 -2.2049
   40DOPC   H2Y 5426   5.238   6.265   5.412  0.1247 -0.8367 -1.8943
   40DOPC   C23 5427   5.025   6.796   5.494 -0.0129 -0.1114 -0.4464
   40DOPC   H3R 5428   5.114   6.761   5.436  1.5398  0.4064  1.5111
   40DOPC   H3S 5429   5.065   6.885   5.547  0.2626  0.5215 -1.6803
   40DOPC   C24 5430   4.910   6.829   5.397 -0.1104  0.5784  0.6679
   40DOPC   H4R 5431   4.824   6.840   5.467  0.6724  0.3225  1.6914
   40DOPC   H4S 5432   4.914   6.732   5.343  4.4122  0.9834 -0.0876
   40DOPC   C25 5433   4.939   6.943   5.296 -0.1332  0.0685 -0.5070
   40DOPC   H5R 5434   4.963   7.041   5.342  0.2701 -0.6757  0.9002
   40DOPC   H5S 5435   4.838   6.972   5.260 -0.4640 -1.2903 -0.7387
   40DOPC   C26 5436   5.043   6.903   5.192  0.3245  0.0473 -0.5975
   40DOPC   H6R 5437   5.010   6.810   5.140  0.8524 -0.1922 -0.5125
   40DOPC   H6S 5438   5.137   6.883   5.248 -0.9983 -1.9179  1.1140
   40DOPC   C27 5439   5.055   7.019   5.099 -0.3980  0.1585  0.2286
   40DOPC   H7R 5440   4.957   7.067   5.078  0.7018  2.6145  0.3551
   40DOPC   H7S 5441   5.098   6.977   5.006 -0.0964  2.5041 -0.7793
   40DOPC   C28 5442   5.149   7.133   5.148 -1.1885 -0.1464 -0.7600
   40DOPC   H8R 5443   5.144   7.150   5.258  0.0113  2.2457 -1.0038
   40DOPC   H8S 5444   5.112   7.229   5.106 -0.4503  0.6907  0.4381
   40DOPC   C29 5445   5.291   7.117   5.111 -0.5102  0.2886 -0.0960
   40DOPC   H9R 5446   5.349   7.043   5.168  0.3244  1.4135  0.5661
   40DOPC  C210 5447   5.353   7.156   5.002  0.4501  0.8230  0.3966
   40DOPC  H10R 5448   5.452   7.111   4.986 -0.5352 -1.6993  0.8917
   40DOPC  C211 5449   5.302   7.241   4.884  0.5443  0.1066  0.0456
   40DOPC  H11R 5450   5.353   7.340   4.886 -1.0431  0.9513  0.4266
   40DOPC  H11S 5451   5.193   7.258   4.898  0.6800 -0.5393  2.2845
   40DOPC  C212 5452   5.319   7.177   4.740 -0.0917 -0.3107  0.2223
   40DOPC  H12R 5453   5.416   7.123   4.744  0.1710  0.2225  2.0457
   40DOPC  H12S 5454   5.317   7.259   4.665  2.2845 -0.0916  0.3292
   40DOPC  C213 5455   5.207   7.079   4.704  1.1729  0.1473 -0.1965
   40DOPC  H13R 5456   5.109   7.125   4.727  1.0930  0.5552 -1.2947
   40DOPC  H13S 5457   5.208   6.986   4.765 -0.2030 -0.0613 -0.4559
   40DOPC  C214 5458   5.208   7.031   4.558 -0.2535  0.3176  0.6472
   40DOPC  H14R 5459   5.307   6.983   4.538  0.0051 -0.3422  3.1678
   40DOPC  H14S 5460   5.193   7.119   4.492 -2.3429 -0.6933 -0.3139
   40DOPC  C215 5461   5.101   6.918   4.533  0.0290 -0.3610 -0.1095
   40DOPC  H15R 5462   4.999   6.962   4.527 -0.4847 -1.2409  1.5996
   40DOPC  H15S 5463   5.102   6.854   4.624 -1.5898  0.1397  0.2907
   40DOPC  C216 5464   5.128   6.827   4.413 -0.0618 -0.6036  0.1274
   40DOPC  H16R 5465   5.217   6.764   4.437  0.2360  0.1365  0.9878
   40DOPC  H16S 5466   5.151   6.883   4.320 -1.4964 -0.2408 -0.0276
   40DOPC  C217 5467   5.012   6.730   4.381  0.3077  0.0849  0.2010
   40DOPC  H17R 5468   4.917   6.787   4.387  1.4042  2.8528 -4.2158
   40DOPC  H17S 5469   5.009   6.655   4.462  1.9590  0.3010  0.4920
   40DOPC  C218 5470   5.016   6.666   4.243  0.5569  0.4224 -0.5931
   40DOPC  H18R 5471   5.101   6.594   4.236 -0.1253 -0.3635 -0.9474
   40DOPC  H18S 5472   5.007   6.737   4.158 -1.9612  0.5653 -0.2892
   40DOPC  H18T 5473   4.931   6.595   4.235  0.3589  0.0304  3.2208
   40DOPC   C33 5474   5.287   6.399   5.242  0.2951 -0.4681 -0.1307
   40DOPC   H3X 5475   5.316   6.322   5.167 -0.4687 -2.0717  1.1721
   40DOPC   H3Y 5476   5.351   6.489   5.232 -0.8511  0.5312  1.1467
   40DOPC   C34 5477   5.142   6.441   5.217 -0.3342  0.2714  0.1277
   40DOPC   H4X 5478   5.119   6.531   5.279 -0.8356  0.0236  0.3103
   40DOPC   H4Y 5479   5.064   6.368   5.247 -0.3437  0.7835  1.4549
   40DOPC   C35 5480   5.114   6.500   5.079  0.3200  0.1640  0.3815
   40DOPC   H5X 5481   5.161   6.431   5.006 -1.3049 -2.2966  1.5162
   40DOPC   H5Y 5482   5.160   6.600   5.066  0.3309 -0.0112 -1.2500
   40DOPC   C36 5483   4.968   6.516   5.027 -0.1087  0.4396  0.3464
   40DOPC   H6X 5484   4.922   6.425   4.985  0.0712  1.2737 -1.8120
   40DOPC   H6Y 5485   4.901   6.538   5.112 -2.5987 -0.9854 -1.1391
   40DOPC   C37 5486   4.959   6.620   4.917  0.0206  0.1757 -0.2245
   40DOPC   H7X 5487   5.002   6.716   4.954 -0.1732 -0.1450  0.8718
   40DOPC   H7Y 5488   5.027   6.590   4.835 -1.0452 -2.6641 -0.1638
   40DOPC   C38 5489   4.816   6.644   4.864 -0.1595 -0.1759 -0.3003
   40DOPC   H8X 5490   4.819   6.736   4.803 -0.8879  1.2545  1.7256
   40DOPC   H8Y 5491   4.751   6.662   4.952  2.4296  1.5857  1.3830
   40DOPC   C39 5492   4.767   6.519   4.796 -0.5273  0.3709  0.1424
   40DOPC   H9X 5493   4.756   6.435   4.866  1.2196 -1.7033 -1.8734
   40DOPC  C310 5494   4.697   6.511   4.674 -0.6989  0.3130 -0.3976
   40DOPC  H10X 5495   4.668   6.411   4.639  1.6915 -0.2842 -0.8111
   40DOPC  C311 5496   4.677   6.619   4.577  0.1880 -0.3719 -0.5771
   40DOPC  H11X 5497   4.733   6.713   4.596  0.4491 -0.3327 -1.4588
   40DOPC  H11Y 5498   4.578   6.661   4.605 -0.4651 -2.2350  0.0603
   40DOPC  C312 5499   4.684   6.600   4.426  0.2981  0.6678  0.4923
   40DOPC  H12X 5500   4.628   6.508   4.399 -0.6653  1.0859  1.0199
   40DOPC  H12Y 5501   4.781   6.569   4.383 -0.5051 -1.3999  0.0307
   40DOPC  C313 5502   4.615   6.718   4.351  0.9371  0.0430  0.8555
   40DOPC  H13X 5503   4.506   6.696   4.358  0.5817  1.8902  1.7024
   40DOPC  H13Y 5504   4.639   6.814   4.401  2.6784 -1.5751  3.3668
   40DOPC  C314 5505   4.647   6.721   4.206 -0.2780 -0.8763 -0.3145
   40DOPC  H14X 5506   4.588   6.796   4.150  1.7149  3.2640  2.6261
   40DOPC  H14Y 5507   4.749   6.755   4.178 -0.1595  2.3088  3.2454
   40DOPC  C315 5508   4.637   6.579   4.142 -0.1260 -0.3655  0.2564
   40DOPC  H15X 5509   4.539   6.536   4.172 -0.9419  2.1677  1.5170
   40DOPC  H15Y 5510   4.717   6.507   4.169  0.5615 -0.5989 -2.1659
   40DOPC  C316 5511   4.652   6.589   3.986  0.1631  0.3567 -0.5137
   40DOPC  H16X 5512   4.558   6.627   3.942  0.2855  0.3687 -0.7615
   40DOPC  H16Y 5513   4.733   6.662   3.966 -0.6066  0.9493 -1.5345
   40DOPC  C317 5514   4.682   6.451   3.931 -0.1564 -0.8074 -0.8096
   40DOPC  H17X 5515   4.782   6.416   3.963 -0.8665 -0.9526  1.3828
   40DOPC  H17Y 5516   4.600   6.388   3.972 -0.9690  1.1387  0.7063
   40DOPC  C318 5517   4.690   6.452   3.780 -0.5807 -0.0323  0.7488
   40DOPC  H18X 5518   4.601   6.503   3.737 -0.8337 -0.8246  0.3040
   40DOPC  H18Y 5519   4.783   6.499   3.741 -0.1378 -0.6548  1.0431
   40DOPC  H18Z 5520   4.675   6.346   3.749 -1.1715  0.3403 -0.3230
   41DOPC     N 5521   4.050   0.770   6.269  0.5018 -0.0929  0.0879
   41DOPC   C12 5522   4.055   0.903   6.204 -0.2036 -0.3099  0.4924
   41DOPC  H12A 5523   4.061   0.986   6.273 -0.7027  2.8564 -2.9440
   41DOPC  H12B 5524   3.965   0.922   6.148 -0.2956  2.1437  1.3549
   41DOPC   C13 5525   3.930   0.773   6.360 -0.0296  0.2278  0.3170
   41DOPC  H13A 5526   3.928   0.687   6.426 -1.5449 -0.4094 -0.5040
   41DOPC  H13B 5527   3.926   0.854   6.431  1.7814 -1.0040  1.9348
   41DOPC  H13C 5528   3.835   0.773   6.309  1.5505 -0.6944 -2.8949
   41DOPC   C14 5529   4.173   0.726   6.344  0.0171  0.1051 -0.5320
   41DOPC  H14A 5530   4.212   0.805   6.407 -1.7103 -0.8603  1.9380
   41DOPC  H14B 5531   4.149   0.646   6.413  0.0835  0.9210  0.4690
   41DOPC  H14C 5532   4.250   0.689   6.278  0.6416 -1.9156  1.1786
   41DOPC   C15 5533   4.017   0.657   6.172 -0.4930 -0.4027 -0.0410
   41DOPC  H15A 5534   3.909   0.658   6.159 -0.5745 -0.4722  0.5674
   41DOPC  H15B 5535   4.052   0.563   6.211 -0.7706 -0.3750  0.2858
   41DOPC  H15C 5536   4.073   0.672   6.082  1.4202 -0.6144  1.0696
   41DOPC   C11 5537   4.165   0.931   6.102  0.3255  0.0676  0.0571
   41DOPC  H11A 5538   4.189   1.039   6.106 -0.0031  0.1115  1.3540
   41DOPC  H11B 5539   4.247   0.873   6.150  0.5706 -1.4317 -2.0167
   41DOPC     P 5540   4.047   0.927   5.865 -0.4050  0.3893 -0.0952
   41DOPC   O13 5541   4.039   1.076   5.858 -0.2869 -0.4585  0.0086
   41DOPC   O14 5542   3.920   0.859   5.896 -0.0718  0.2532 -0.4621
   41DOPC   O12 5543   4.158   0.880   5.964 -0.1603 -0.2493 -0.4204
   41DOPC   O11 5544   4.094   0.872   5.725 -0.4998 -0.8264  0.3686
   41DOPC    C1 5545   4.229   0.867   5.683  0.0973  0.0176 -0.3285
   41DOPC    HA 5546   4.294   0.813   5.755  0.8515  0.0952 -0.9369
   41DOPC    HB 5547   4.267   0.968   5.655  1.3110 -0.9808 -2.5577
   41DOPC    C2 5548   4.241   0.763   5.563 -0.0939  0.0381 -0.5054
   41DOPC    HS 5549   4.350   0.741   5.554  0.1325  0.2335  1.3270
   41DOPC   O21 5550   4.179   0.826   5.448  0.0579  0.0810 -0.4984
   41DOPC   C21 5551   4.265   0.912   5.395 -0.2949  0.3299  0.5378
   41DOPC   O22 5552   4.383   0.923   5.420 -0.1950  0.3010  0.2117
   41DOPC   C22 5553   4.191   0.998   5.284  0.7605 -0.0502 -0.6904
   41DOPC   H2R 5554   4.263   1.071   5.243 -0.6287  0.7925 -1.7429
   41DOPC   H2S 5555   4.118   1.063   5.337  1.0344 -0.7511  0.5949
   41DOPC    C3 5556   4.160   0.633   5.591 -0.0835  0.6214 -0.3767
   41DOPC    HX 5557   4.056   0.649   5.627 -0.5583 -1.2132 -0.8362
   41DOPC    HY 5558   4.212   0.585   5.676  0.3779  2.4761  0.4324
   41DOPC   O31 5559   4.166   0.540   5.475  0.0959 -0.1623  0.0162
   41DOPC   C31 5560   4.064   0.553   5.387 -0.4892 -0.1543  0.2257
   41DOPC   O32 5561   3.966   0.622   5.412 -1.1291 -0.3845  0.1241
   41DOPC   C32 5562   4.081   0.472   5.257 -0.9497 -0.0781 -0.1430
   41DOPC   H2X 5563   4.183   0.485   5.215 -0.6227  0.1449  0.6955
   41DOPC   H2Y 5564   4.076   0.365   5.288 -0.3925 -0.7726 -2.2778
   41DOPC   C23 5565   4.130   0.922   5.167  0.5303  0.4706 -0.1601
   41DOPC   H3R 5566   4.088   0.991   5.091  0.0000 -0.9288 -1.1632
   41DOPC   H3S 5567   4.045   0.855   5.193  0.8885  0.0601 -0.0538
   41DOPC   C24 5568   4.226   0.834   5.092  0.0953 -0.1243  0.6968
   41DOPC   H4R 5569   4.172   0.779   5.012 -1.5806  1.1085  0.9165
   41DOPC   H4S 5570   4.263   0.755   5.161  0.1608 -1.0132 -0.3384
   41DOPC   C25 5571   4.332   0.919   5.019 -0.3638  0.5031 -0.2117
   41DOPC   H5R 5572   4.390   0.971   5.098  0.1467  1.0887 -0.9569
   41DOPC   H5S 5573   4.291   0.995   4.948  1.1748  0.6131 -1.0209
   41DOPC   C26 5574   4.429   0.835   4.926 -0.9217 -0.3858 -0.6244
   41DOPC   H6R 5575   4.484   0.758   4.986  0.6210  0.8544 -0.3762
   41DOPC   H6S 5576   4.503   0.896   4.870  0.1555 -1.7366 -0.7501
   41DOPC   C27 5577   4.359   0.755   4.820  0.6920  0.4870  0.0178
   41DOPC   H7R 5578   4.285   0.683   4.863  1.7561 -1.2598 -0.9531
   41DOPC   H7S 5579   4.428   0.675   4.786 -0.9162 -1.7824  1.6756
   41DOPC   C28 5580   4.298   0.826   4.696  0.5316 -0.0678  0.2088
   41DOPC   H8R 5581   4.387   0.885   4.664  0.9873 -0.7610  0.1766
   41DOPC   H8S 5582   4.214   0.892   4.725  2.4158  2.3240  0.5713
   41DOPC   C29 5583   4.249   0.731   4.593  0.2264 -0.1966 -0.1683
   41DOPC   H9R 5584   4.190   0.647   4.633  0.6851 -1.1643 -1.4404
   41DOPC  C210 5585   4.267   0.739   4.456  0.4658  0.2990 -0.6269
   41DOPC  H10R 5586   4.218   0.667   4.390 -1.3539 -0.7801  1.7615
   41DOPC  C211 5587   4.328   0.857   4.393 -0.8266 -0.4688 -0.5037
   41DOPC  H11R 5588   4.344   0.940   4.464  0.3883  0.6197 -2.0090
   41DOPC  H11S 5589   4.258   0.900   4.318 -2.2397  0.2004  1.1217
   41DOPC  C212 5590   4.461   0.812   4.337 -0.6948  0.5744  0.0140
   41DOPC  H12R 5591   4.474   0.707   4.304  0.2188  0.0348  1.9462
   41DOPC  H12S 5592   4.535   0.818   4.419 -1.7460 -1.7412  1.2519
   41DOPC  C213 5593   4.506   0.904   4.228  0.5327 -0.0826  0.6864
   41DOPC  H13R 5594   4.485   1.010   4.253 -0.1215 -0.5423  2.1677
   41DOPC  H13S 5595   4.453   0.882   4.133 -0.8729 -0.4648  1.5448
   41DOPC  C214 5596   4.656   0.901   4.210  0.9447  0.0617 -0.3985
   41DOPC  H14R 5597   4.679   0.793   4.200  0.4472 -0.3072  1.9586
   41DOPC  H14S 5598   4.703   0.942   4.302 -1.4255 -3.2399  2.5387
   41DOPC  C215 5599   4.712   0.963   4.083  0.3212  0.6012  0.3828
   41DOPC  H15R 5600   4.675   1.066   4.065 -1.1048  0.1116  0.3847
   41DOPC  H15S 5601   4.672   0.899   4.002 -0.0568  1.7670 -0.3745
   41DOPC  C216 5602   4.871   0.960   4.068  1.2628 -0.4574 -0.1800
   41DOPC  H16R 5603   4.898   0.857   4.101  0.8465 -0.3392  0.5495
   41DOPC  H16S 5604   4.922   1.037   4.129  2.0313 -1.0680 -0.0304
   41DOPC  C217 5605   4.906   0.987   3.918  0.4472  0.5488  0.0614
   41DOPC  H17R 5606   4.839   1.072   3.895 -0.2778  0.3113  1.2486
   41DOPC  H17S 5607   4.870   0.896   3.865  2.7003 -0.0660 -0.5255
   41DOPC  C218 5608   5.053   1.001   3.882  0.0793  0.1590  0.5972
   41DOPC  H18R 5609   5.118   0.956   3.959  0.7972  0.6505  0.2941
   41DOPC  H18S 5610   5.078   1.109   3.872  2.1299 -0.3325 -0.1689
   41DOPC  H18T 5611   5.080   0.946   3.789 -1.7743  0.6098 -0.2545
   41DOPC   C33 5612   3.975   0.500   5.149  0.4610 -1.0805 -0.8011
   41DOPC   H3X 5613   3.972   0.610   5.133  4.2852 -0.0559  3.4015
   41DOPC   H3Y 5614   3.875   0.464   5.183  0.5220 -1.9368 -1.4991
   41DOPC   C34 5615   4.002   0.425   5.018 -0.0495 -0.1586  0.5319
   41DOPC   H4X 5616   4.090   0.456   4.958 -1.1091  1.3048 -0.3292
   41DOPC   H4Y 5617   3.920   0.445   4.947  0.5175 -0.6115 -0.2702
   41DOPC   C35 5618   4.003   0.271   5.037 -0.5501 -0.7774 -0.2610
   41DOPC   H5X 5619   3.928   0.250   5.116 -1.0028  0.4759 -0.3309
   41DOPC   H5Y 5620   4.098   0.227   5.075 -0.7650 -0.0837  1.1437
   41DOPC   C36 5621   3.954   0.202   4.908 -0.2123 -0.9150 -0.0589
   41DOPC   H6X 5622   3.857   0.243   4.873 -0.3301  0.3805  1.6636
   41DOPC   H6Y 5623   4.026   0.234   4.829 -1.4407 -0.3174 -0.9684
   41DOPC   C37 5624   3.966   0.042   4.913  0.2864 -0.0608 -0.2633
   41DOPC   H7X 5625   4.065   0.018   4.956 -0.0605 -4.4892 -1.4606
   41DOPC   H7Y 5626   3.879   0.009   4.974  1.3019  0.1465  1.3488
   41DOPC   C38 5627   3.963  -0.015   4.768  0.3591  0.0544 -0.2913
   41DOPC   H8X 5628   3.997  -0.121   4.765  0.6723  0.1386  0.2351
   41DOPC   H8Y 5629   4.044   0.042   4.719 -0.9610  2.4929  0.1743
   41DOPC   C39 5630   3.831  -0.015   4.696  0.0288  0.0899  0.1894
   41DOPC   H9X 5631   3.750  -0.069   4.745 -0.5528  0.5729 -0.2218
   41DOPC  C310 5632   3.798   0.064   4.594 -0.2679  0.5406 -0.1161
   41DOPC  H10X 5633   3.705   0.041   4.540  0.1805  1.8374 -1.5007
   41DOPC  C311 5634   3.901   0.147   4.516  0.3415 -0.3491 -0.1174
   41DOPC  H11X 5635   3.937   0.087   4.430 -0.8849  0.7018 -1.3884
   41DOPC  H11Y 5636   3.990   0.167   4.580 -0.2420  0.7461  0.3733
   41DOPC  C312 5637   3.852   0.281   4.466 -0.0542  0.2876 -0.2099
   41DOPC  H12X 5638   3.755   0.270   4.412 -0.1698  0.5887 -0.0674
   41DOPC  H12Y 5639   3.914   0.301   4.377  1.4398  0.2185  0.7827
   41DOPC  C313 5640   3.858   0.392   4.574 -0.2474 -0.1664 -1.2187
   41DOPC  H13X 5641   3.763   0.372   4.629  0.6029  0.4839  0.5677
   41DOPC  H13Y 5642   3.948   0.373   4.635 -0.8783  0.6434  0.0131
   41DOPC  C314 5643   3.856   0.540   4.525  0.1278  1.1584 -1.0531
   41DOPC  H14X 5644   3.946   0.574   4.468  0.3326  3.5352  0.5338
   41DOPC  H14Y 5645   3.753   0.559   4.490 -0.6057 -0.7557 -0.0193
   41DOPC  C315 5646   3.865   0.634   4.649 -0.1834  0.4373  0.1300
   41DOPC  H15X 5647   3.962   0.620   4.703 -0.7789 -2.0925  0.6746
   41DOPC  H15Y 5648   3.795   0.599   4.728  1.5415 -3.0944  0.3268
   41DOPC  C316 5649   3.854   0.775   4.607 -0.0521 -0.3665  0.0832
   41DOPC  H16X 5650   3.939   0.798   4.539 -0.9415  0.0292 -0.9216
   41DOPC  H16Y 5651   3.764   0.797   4.546 -0.5555 -0.2525  0.8559
   41DOPC  C317 5652   3.859   0.878   4.726  0.2683 -0.2835  0.7130
   41DOPC  H17X 5653   3.962   0.919   4.714  0.0609  0.7664  2.3225
   41DOPC  H17Y 5654   3.790   0.960   4.699  0.5298  0.1957  1.4744
   41DOPC  C318 5655   3.823   0.819   4.868 -0.1927  0.1196  0.4113
   41DOPC  H18X 5656   3.821   0.888   4.954 -0.3517 -0.4646  0.8823
   41DOPC  H18Y 5657   3.718   0.782   4.871 -0.5959  0.7276 -2.7253
   41DOPC  H18Z 5658   3.891   0.733   4.885  0.6578  0.1624 -2.2744
   42DOPC     N 5659   3.940   1.995   5.567  0.9196 -0.7822 -0.1955
   42DOPC   C12 5660   3.803   2.048   5.531 -0.0794  0.1739  0.7916
   42DOPC  H12A 5661   3.796   2.155   5.542  2.2191  0.3805  0.7868
   42DOPC  H12B 5662   3.733   1.992   5.591 -0.5607 -0.0010  0.0754
   42DOPC   C13 5663   4.045   2.053   5.484  0.2082  0.4399  0.2584
   42DOPC  H13A 5664   4.025   2.157   5.462  0.0656  0.2872 -0.3478
   42DOPC  H13B 5665   4.144   2.048   5.528 -0.2920 -0.2280  1.3374
   42DOPC  H13C 5666   4.048   2.006   5.387  0.3444 -1.0767  0.9639
   42DOPC   C14 5667   3.945   1.851   5.552  0.7553  0.3620  0.1686
   42DOPC  H14A 5668   3.873   1.804   5.617 -0.1449  0.1169 -0.9593
   42DOPC  H14B 5669   3.921   1.825   5.450 -2.3183 -2.8851  1.4964
   42DOPC  H14C 5670   4.040   1.813   5.586  1.0942  0.3374 -0.7546
   42DOPC   C15 5671   3.958   2.045   5.708  0.9115 -0.6349  0.5948
   42DOPC  H15A 5672   4.016   2.136   5.709  1.9728 -1.2995  1.4650
   42DOPC  H15B 5673   4.020   1.979   5.765  1.7678 -1.3455 -1.1034
   42DOPC  H15C 5674   3.863   2.071   5.754  2.1437  1.6547  2.0580
   42DOPC   C11 5675   3.754   2.027   5.381 -0.1264  0.2023 -0.0467
   42DOPC  H11A 5676   3.659   2.084   5.367 -2.2069 -3.2041 -1.1425
   42DOPC  H11B 5677   3.821   2.073   5.305 -1.5827  0.9959 -0.9250
   42DOPC     P 5678   3.599   1.816   5.408 -0.0994 -0.1608 -0.1170
   42DOPC   O13 5679   3.547   1.892   5.526 -0.0465 -0.0628 -0.0972
   42DOPC   O14 5680   3.639   1.672   5.420  0.5845 -0.6984 -0.6141
   42DOPC   O12 5681   3.725   1.890   5.347  0.9831 -0.4593 -0.1021
   42DOPC   O11 5682   3.492   1.820   5.288 -0.0570 -0.1086 -0.4745
   42DOPC    C1 5683   3.518   1.770   5.155  0.0418  0.3968  0.2059
   42DOPC    HA 5684   3.431   1.704   5.135  0.0064  0.5039  0.0062
   42DOPC    HB 5685   3.603   1.698   5.149  1.4283  1.7666  2.2359
   42DOPC    C2 5686   3.520   1.884   5.044  0.3893 -0.1852 -0.4445
   42DOPC    HS 5687   3.570   1.970   5.093  2.1289 -0.0962 -2.2480
   42DOPC   O21 5688   3.382   1.903   4.996 -0.3143  0.3033  0.7843
   42DOPC   C21 5689   3.366   2.032   4.947 -0.7510  0.3620  0.1029
   42DOPC   O22 5690   3.449   2.120   4.967 -0.7831  0.4135 -0.0447
   42DOPC   C22 5691   3.228   2.054   4.885 -0.3094 -0.1069 -0.2818
   42DOPC   H2R 5692   3.150   2.023   4.958  1.3772 -0.5620  1.4245
   42DOPC   H2S 5693   3.218   1.980   4.802 -0.7276 -2.0490  1.3988
   42DOPC    C3 5694   3.604   1.858   4.912  0.2017  0.6559 -0.4597
   42DOPC    HX 5695   3.611   1.941   4.839  1.2821  0.4506 -0.6161
   42DOPC    HY 5696   3.556   1.772   4.861  1.9625  0.2620 -1.5412
   42DOPC   O31 5697   3.739   1.819   4.938  0.2116 -0.3712 -0.1287
   42DOPC   C31 5698   3.817   1.918   4.981 -0.1799 -0.1687 -0.3874
   42DOPC   O32 5699   3.791   2.037   4.979 -0.0409 -0.3882  0.3003
   42DOPC   C32 5700   3.948   1.862   5.034 -0.1371 -0.8240  0.1638
   42DOPC   H2X 5701   3.917   1.774   5.094  0.5753 -1.8064 -0.8616
   42DOPC   H2Y 5702   4.011   1.820   4.952 -2.1782 -2.2965 -0.7256
   42DOPC   C23 5703   3.202   2.200   4.830  0.8716 -0.0351 -0.5773
   42DOPC   H3R 5704   3.286   2.229   4.763  1.1323  0.1303 -0.1796
   42DOPC   H3S 5705   3.190   2.278   4.908  0.5693 -1.9599  1.3722
   42DOPC   C24 5706   3.070   2.204   4.742  0.0231  0.1210 -0.8662
   42DOPC   H4R 5707   3.001   2.135   4.794  0.7623  0.9189  1.2896
   42DOPC   H4S 5708   3.088   2.158   4.643  1.8651  0.4802 -0.7286
   42DOPC   C25 5709   3.002   2.339   4.738  0.0393 -0.8272 -1.0213
   42DOPC   H5R 5710   2.982   2.382   4.838 -2.2971  1.4560 -2.3587
   42DOPC   H5S 5711   2.905   2.337   4.683 -0.3310 -0.9027 -0.3759
   42DOPC   C26 5712   3.091   2.446   4.668 -0.1113  0.2402  0.4725
   42DOPC   H6R 5713   3.197   2.433   4.700 -0.3577 -0.2175  1.1148
   42DOPC   H6S 5714   3.058   2.544   4.707  0.3742  0.7056 -0.2624
   42DOPC   C27 5715   3.076   2.452   4.515  0.0800  0.3490  0.0277
   42DOPC   H7R 5716   2.968   2.455   4.488  0.2025 -2.1014 -0.9353
   42DOPC   H7S 5717   3.116   2.354   4.482 -1.4903 -0.9568  1.7389
   42DOPC   C28 5718   3.152   2.567   4.445  0.5286  0.2592 -0.5282
   42DOPC   H8R 5719   3.123   2.648   4.514 -1.1561 -1.1914  0.5595
   42DOPC   H8S 5720   3.124   2.579   4.338  0.5986 -1.0008 -0.7077
   42DOPC   C29 5721   3.298   2.541   4.448  0.0501  1.3490 -0.3377
   42DOPC   H9R 5722   3.337   2.469   4.374 -0.2378 -0.9380  1.6091
   42DOPC  C210 5723   3.393   2.600   4.524  0.5287 -0.3350  0.2190
   42DOPC  H10R 5724   3.496   2.561   4.515  1.4597  1.3371  2.7570
   42DOPC  C211 5725   3.375   2.707   4.632  0.2447  0.2387 -0.0744
   42DOPC  H11R 5726   3.416   2.683   4.732  3.0723  2.6383 -0.5151
   42DOPC  H11S 5727   3.267   2.712   4.657 -0.4740 -0.7052 -2.6182
   42DOPC  C212 5728   3.424   2.847   4.597  0.7270  1.1467  0.3832
   42DOPC  H12R 5729   3.400   2.873   4.491  1.0710  0.8083  0.2211
   42DOPC  H12S 5730   3.534   2.836   4.603  0.5484 -1.3340  0.2081
   42DOPC  C213 5731   3.384   2.961   4.694 -0.4606 -0.2751 -0.4042
   42DOPC  H13R 5732   3.370   2.926   4.798  0.6917  2.2431  0.6894
   42DOPC  H13S 5733   3.287   3.005   4.662 -0.1095  1.4459  0.7486
   42DOPC  C214 5734   3.480   3.081   4.701 -0.6294 -0.0596 -0.0405
   42DOPC  H14R 5735   3.438   3.160   4.768 -0.3809 -0.1520  0.2279
   42DOPC  H14S 5736   3.503   3.121   4.600 -0.5314  0.3558  0.1433
   42DOPC  C215 5737   3.619   3.050   4.759 -0.1879  0.0766  0.5231
   42DOPC  H15R 5738   3.658   2.960   4.708 -0.1544  0.2859  0.1808
   42DOPC  H15S 5739   3.606   3.026   4.867  0.5330 -1.0743  0.3692
   42DOPC  C216 5740   3.719   3.160   4.743  0.3083 -0.1721  0.1654
   42DOPC  H16R 5741   3.714   3.200   4.640  2.6007 -1.4611 -0.5098
   42DOPC  H16S 5742   3.821   3.117   4.753  0.0679 -0.5392  1.2115
   42DOPC  C217 5743   3.701   3.267   4.848  0.5360 -0.0414  0.2616
   42DOPC  H17R 5744   3.662   3.220   4.942  1.8625 -3.0679 -0.5958
   42DOPC  H17S 5745   3.624   3.339   4.813  0.2454 -0.6160 -0.2990
   42DOPC  C218 5746   3.830   3.346   4.876 -0.3582  0.2651 -0.1589
   42DOPC  H18R 5747   3.904   3.297   4.943 -0.1871  1.3749  0.4900
   42DOPC  H18S 5748   3.798   3.435   4.934  1.0858  1.4666 -1.1361
   42DOPC  H18T 5749   3.880   3.373   4.780  0.1215  1.3533  0.3811
   42DOPC   C33 5750   4.037   1.972   5.103  0.3022  0.0595 -0.4608
   42DOPC   H3X 5751   3.983   1.986   5.199  0.6378 -0.3708 -0.2051
   42DOPC   H3Y 5752   4.037   2.062   5.038  1.1434  1.5032  1.4531
   42DOPC   C34 5753   4.172   1.914   5.147 -0.2746 -0.0699  0.2512
   42DOPC   H4X 5754   4.147   1.821   5.202 -0.3454 -0.6739 -0.7729
   42DOPC   H4Y 5755   4.210   1.991   5.217  0.3076  1.2624 -1.4451
   42DOPC   C35 5756   4.277   1.890   5.039  0.8688 -0.5669  0.4070
   42DOPC   H5X 5757   4.315   1.978   4.983 -0.9657 -0.3129 -0.4960
   42DOPC   H5Y 5758   4.239   1.817   4.965  0.7437 -0.2028  0.1096
   42DOPC   C36 5759   4.410   1.828   5.093  0.4723  0.7298  0.2810
   42DOPC   H6X 5760   4.387   1.731   5.142  3.3022 -0.2320 -0.0695
   42DOPC   H6Y 5761   4.482   1.821   5.008 -1.9024  1.8837 -1.9493
   42DOPC   C37 5762   4.493   1.904   5.201  0.4820  0.0377  0.7179
   42DOPC   H7X 5763   4.439   1.912   5.297 -2.3456  1.0843 -0.8219
   42DOPC   H7Y 5764   4.582   1.841   5.223  0.7488  0.4746  0.8880
   42DOPC   C38 5765   4.542   2.049   5.155  0.7350  0.2117  0.0249
   42DOPC   H8X 5766   4.450   2.102   5.124 -0.9109 -2.2669  0.3030
   42DOPC   H8Y 5767   4.601   2.031   5.062  0.4223  0.0346 -0.1421
   42DOPC   C39 5768   4.615   2.113   5.266  1.0118  0.3642  0.3047
   42DOPC   H9X 5769   4.558   2.143   5.355  0.2184 -1.0450  0.3035
   42DOPC  C310 5770   4.743   2.138   5.271 -0.0935  0.8870 -0.5156
   42DOPC  H10X 5771   4.785   2.183   5.362 -0.8544  0.8071 -0.1230
   42DOPC  C311 5772   4.843   2.133   5.164 -0.1804 -0.8981  0.8994
   42DOPC  H11X 5773   4.871   2.239   5.148 -1.4278 -0.8181 -0.9912
   42DOPC  H11Y 5774   4.803   2.093   5.069  2.5091 -0.6924 -0.4418
   42DOPC  C312 5775   4.971   2.059   5.208  0.1292  0.4352 -0.2802
   42DOPC  H12X 5776   5.006   2.103   5.304 -1.0499  1.0058 -0.0920
   42DOPC  H12Y 5777   5.042   2.085   5.127 -0.3069 -1.8042 -1.4391
   42DOPC  C313 5778   4.953   1.907   5.209  0.3604  0.0264  0.2005
   42DOPC  H13X 5779   5.039   1.858   5.259 -0.2985 -0.6302  0.7145
   42DOPC  H13Y 5780   4.860   1.866   5.253  0.5559 -1.4100 -0.6695
   42DOPC  C314 5781   4.951   1.845   5.063  0.1302  0.3776  0.4800
   42DOPC  H14X 5782   4.857   1.887   5.021  0.0595  0.7010  0.9482
   42DOPC  H14Y 5783   5.039   1.885   5.009  0.4978  1.2682  1.6799
   42DOPC  C315 5784   4.960   1.689   5.054 -0.0206 -0.7634 -0.7135
   42DOPC  H15X 5785   4.874   1.646   5.109 -0.4019 -1.3992 -1.7774
   42DOPC  H15Y 5786   5.051   1.657   5.109  1.8950  2.2878 -1.8338
   42DOPC  C316 5787   4.957   1.626   4.917 -0.3676 -0.2319 -0.1202
   42DOPC  H16X 5788   5.048   1.665   4.866  0.3295 -1.3892  0.2044
   42DOPC  H16Y 5789   4.964   1.516   4.913  0.2164 -0.2974  1.8269
   42DOPC  C317 5790   4.838   1.661   4.835 -0.1412  0.5922 -0.1232
   42DOPC  H17X 5791   4.751   1.621   4.893 -0.9746 -1.5183 -2.6517
   42DOPC  H17Y 5792   4.821   1.771   4.828 -0.4610  0.5164 -0.5778
   42DOPC  C318 5793   4.825   1.594   4.699 -0.3496 -0.5593  0.4120
   42DOPC  H18X 5794   4.818   1.486   4.725 -1.1163 -0.2405  1.6313
   42DOPC  H18Y 5795   4.724   1.614   4.655 -0.3398 -0.3352  0.4922
   42DOPC  H18Z 5796   4.904   1.626   4.628 -1.2226  1.4233  0.2757
   43DOPC     N 5797   3.649   0.700   5.651  0.4730  0.1282  0.8072
   43DOPC   C12 5798   3.590   0.716   5.511 -0.3037 -0.2506  0.3781
   43DOPC  H12A 5799   3.649   0.653   5.446 -1.6791 -1.7393  0.5210
   43DOPC  H12B 5800   3.597   0.818   5.473  0.8303 -0.5606 -0.2741
   43DOPC   C13 5801   3.794   0.721   5.655 -0.2782  0.6768 -0.7119
   43DOPC  H13A 5802   3.849   0.657   5.588  0.1716 -0.1951  0.4484
   43DOPC  H13B 5803   3.812   0.826   5.639 -0.8567  1.0472  0.8156
   43DOPC  H13C 5804   3.836   0.712   5.754  2.7275  2.1867 -1.7267
   43DOPC   C14 5805   3.638   0.564   5.704  0.0208 -0.4363 -0.1957
   43DOPC  H14A 5806   3.694   0.498   5.640 -2.4284 -2.0749 -0.8017
   43DOPC  H14B 5807   3.672   0.567   5.807 -2.0311  0.5462  0.5225
   43DOPC  H14C 5808   3.537   0.526   5.712  0.6446 -2.1482  0.1543
   43DOPC   C15 5809   3.579   0.790   5.754  0.2001 -0.2612  0.2661
   43DOPC  H15A 5810   3.597   0.895   5.740  0.2670 -0.2352  0.5560
   43DOPC  H15B 5811   3.601   0.761   5.855 -2.8784  0.8259  1.3588
   43DOPC  H15C 5812   3.472   0.779   5.743  0.1734  1.2768 -1.5700
   43DOPC   C11 5813   3.446   0.663   5.491  0.8594 -0.7089  0.3002
   43DOPC  H11A 5814   3.433   0.654   5.381 -1.1776 -1.1794  0.5369
   43DOPC  H11B 5815   3.418   0.558   5.515 -2.1865  0.1116  0.7900
   43DOPC     P 5816   3.289   0.874   5.488 -0.4134  0.2851  0.2349
   43DOPC   O13 5817   3.404   0.956   5.444  0.3611 -0.4888 -0.3947
   43DOPC   O14 5818   3.198   0.933   5.581  0.7949 -0.6123 -0.4750
   43DOPC   O12 5819   3.343   0.745   5.552  0.5350  0.4176  0.2622
   43DOPC   O11 5820   3.223   0.810   5.363  0.0986 -0.2326  0.4044
   43DOPC    C1 5821   3.092   0.756   5.355  0.0394  0.2698  0.4495
   43DOPC    HA 5822   3.025   0.836   5.315  0.4080 -0.2627 -1.3180
   43DOPC    HB 5823   3.056   0.717   5.453 -0.4776  0.7976  0.4815
   43DOPC    C2 5824   3.083   0.640   5.250 -0.2272  0.0478  0.0472
   43DOPC    HS 5825   3.153   0.561   5.286  0.8257  1.0045  0.1663
   43DOPC   O21 5826   3.119   0.691   5.118 -0.0997 -0.3248 -0.1740
   43DOPC   C21 5827   3.242   0.693   5.085 -0.6192 -0.2111  0.0320
   43DOPC   O22 5828   3.338   0.658   5.150 -0.1288 -0.0951  0.4766
   43DOPC   C22 5829   3.248   0.724   4.931 -0.2907  0.2045  1.0281
   43DOPC   H2R 5830   3.149   0.762   4.899 -0.2807  0.1072  0.8843
   43DOPC   H2S 5831   3.281   0.628   4.886  0.0101  0.9620 -0.4263
   43DOPC    C3 5832   2.942   0.581   5.241  0.3475 -0.4832 -0.0709
   43DOPC    HX 5833   2.873   0.656   5.198  0.2777 -0.1922  0.5411
   43DOPC    HY 5834   2.908   0.549   5.341  2.4431 -0.1123  0.8214
   43DOPC   O31 5835   2.948   0.467   5.151  0.4710  0.0256 -0.0202
   43DOPC   C31 5836   2.983   0.355   5.211 -0.7602 -0.6762  0.3632
   43DOPC   O32 5837   3.000   0.331   5.329  0.1527  0.0510 -0.1245
   43DOPC   C32 5838   3.001   0.244   5.111 -0.0256 -0.4417  0.0241
   43DOPC   H2X 5839   3.105   0.210   5.129  0.8769 -0.3722 -4.1419
   43DOPC   H2Y 5840   2.935   0.163   5.148  1.1155 -2.3499 -1.9239
   43DOPC   C23 5841   3.360   0.834   4.898 -0.0203  0.4606  0.2585
   43DOPC   H3R 5842   3.450   0.784   4.939  0.7152 -0.4655 -2.3150
   43DOPC   H3S 5843   3.329   0.937   4.926 -1.0383  0.7811 -1.8685
   43DOPC   C24 5844   3.385   0.828   4.753 -0.5388 -0.7853 -0.5029
   43DOPC   H4R 5845   3.292   0.832   4.693  0.5194  0.3915 -2.1532
   43DOPC   H4S 5846   3.432   0.729   4.733 -2.6132 -1.8930 -0.1032
   43DOPC   C25 5847   3.477   0.941   4.710  0.8649 -0.1187 -0.2324
   43DOPC   H5R 5848   3.570   0.933   4.770  0.1141  0.9333  1.1356
   43DOPC   H5S 5849   3.418   1.030   4.740 -0.4163 -1.4342  1.3617
   43DOPC   C26 5850   3.495   0.960   4.562  0.4875 -0.1420  0.3615
   43DOPC   H6R 5851   3.560   0.878   4.524 -1.8354 -1.3665 -1.2026
   43DOPC   H6S 5852   3.555   1.048   4.531 -1.5906  1.0992 -0.3053
   43DOPC   C27 5853   3.375   0.966   4.465 -0.1560  0.5963 -0.1296
   43DOPC   H7R 5854   3.294   1.029   4.507  0.5988 -0.0325  2.4307
   43DOPC   H7S 5855   3.342   0.860   4.468  0.9967  0.2219 -0.1720
   43DOPC   C28 5856   3.423   1.001   4.318  0.4261  0.0101  0.1190
   43DOPC   H8R 5857   3.522   0.952   4.308  0.0525 -0.8196  0.3600
   43DOPC   H8S 5858   3.425   1.111   4.304 -2.3191  0.2454  0.9073
   43DOPC   C29 5859   3.315   0.954   4.219  0.1994 -0.4641  0.0470
   43DOPC   H9R 5860   3.214   0.988   4.245  0.7765  1.3236  0.0678
   43DOPC  C210 5861   3.336   0.876   4.111 -0.2524  0.3178  0.4580
   43DOPC  H10R 5862   3.248   0.853   4.048  0.4429 -0.2484 -0.3297
   43DOPC  C211 5863   3.474   0.829   4.065 -0.7887  0.0633 -0.2010
   43DOPC  H11R 5864   3.478   0.718   4.063  0.1491  0.0574  1.0491
   43DOPC  H11S 5865   3.561   0.851   4.129  1.1685 -3.9961 -1.1700
   43DOPC  C212 5866   3.509   0.872   3.913 -0.4178 -0.5027 -0.3536
   43DOPC  H12R 5867   3.484   0.792   3.839  0.5961 -0.2627 -0.9661
   43DOPC  H12S 5868   3.618   0.885   3.901  0.1008 -3.6228  0.0887
   43DOPC  C213 5869   3.431   0.992   3.867  0.0270  0.0880 -0.3746
   43DOPC  H13R 5870   3.453   1.073   3.939 -0.9762 -1.0829  1.3291
   43DOPC  H13S 5871   3.322   0.969   3.875 -0.1645  0.2084 -2.1655
   43DOPC  C214 5872   3.446   1.044   3.725 -0.6326 -0.3414 -0.5801
   43DOPC  H14R 5873   3.425   0.973   3.642  0.8781  0.5779 -1.8214
   43DOPC  H14S 5874   3.550   1.079   3.709  1.4100 -4.7823  1.4753
   43DOPC  C215 5875   3.349   1.165   3.699  0.3320  0.6939 -0.0956
   43DOPC  H15R 5876   3.386   1.254   3.644 -0.2890  1.6859  1.0446
   43DOPC  H15S 5877   3.313   1.211   3.794  0.9751 -0.5305  0.7667
   43DOPC  C216 5878   3.215   1.107   3.638  0.0993 -0.0697  0.5546
   43DOPC  H16R 5879   3.171   1.031   3.706 -0.5875 -0.5247 -0.3686
   43DOPC  H16S 5880   3.243   1.048   3.548  2.8728 -0.1932  1.4266
   43DOPC  C217 5881   3.101   1.215   3.609 -0.0353 -0.3132  0.1356
   43DOPC  H17R 5882   3.014   1.149   3.589  2.9795 -4.4657 -0.5070
   43DOPC  H17S 5883   3.124   1.283   3.524 -0.6625  0.8486  0.8671
   43DOPC  C218 5884   3.072   1.309   3.727  0.1195  0.2642 -0.3812
   43DOPC  H18R 5885   2.979   1.367   3.709  0.7978  1.0347 -1.5551
   43DOPC  H18S 5886   3.152   1.379   3.760  0.0786  0.2205 -0.1858
   43DOPC  H18T 5887   3.045   1.250   3.817  0.5025 -0.5832 -0.8109
   43DOPC   C33 5888   2.977   0.283   4.965 -0.2744 -0.0932 -0.8297
   43DOPC   H3X 5889   3.017   0.380   4.928  0.5493 -0.2901 -0.4930
   43DOPC   H3Y 5890   2.868   0.283   4.946 -0.6809  1.7237  1.1483
   43DOPC   C34 5891   3.031   0.171   4.873  0.0834 -0.7771  0.1915
   43DOPC   H4X 5892   2.968   0.081   4.888 -0.1374 -0.9191 -1.3869
   43DOPC   H4Y 5893   3.131   0.143   4.912  0.1079 -1.1275 -0.1126
   43DOPC   C35 5894   3.045   0.206   4.729 -0.2249  0.2216  0.5530
   43DOPC   H5X 5895   3.112   0.294   4.719  0.8639 -0.6335  0.0990
   43DOPC   H5Y 5896   2.948   0.232   4.681  0.4637 -1.7606 -2.1028
   43DOPC   C36 5897   3.092   0.097   4.636 -0.1034  0.7393  0.7682
   43DOPC   H6X 5898   3.187   0.053   4.672 -0.2404 -0.3885 -0.2010
   43DOPC   H6Y 5899   3.008   0.027   4.617 -0.8120  2.1311 -1.6531
   43DOPC   C37 5900   3.134   0.148   4.493  0.0264 -0.0002 -0.4240
   43DOPC   H7X 5901   3.068   0.225   4.447  0.4325  0.7197  0.1625
   43DOPC   H7Y 5902   3.235   0.195   4.501  0.0806 -0.1452 -0.2468
   43DOPC   C38 5903   3.155   0.030   4.392 -0.2003  0.1566 -0.3027
   43DOPC   H8X 5904   3.202   0.066   4.298  1.8295  1.5859  1.1706
   43DOPC   H8Y 5905   3.049   0.004   4.371 -0.9849  1.8819  1.2192
   43DOPC   C39 5906   3.232  -0.086   4.449 -0.9859 -0.0007 -0.2961
   43DOPC   H9X 5907   3.179  -0.158   4.514  4.5103 -0.5959  4.2274
   43DOPC  C310 5908   3.354  -0.122   4.403  0.3273  0.2092 -0.1542
   43DOPC  H10X 5909   3.397  -0.216   4.443  1.4536  1.1282  0.8972
   43DOPC  C311 5910   3.443  -0.034   4.322 -0.3971 -0.4107  0.7379
   43DOPC  H11X 5911   3.543  -0.019   4.369 -0.1481 -1.4523  0.5872
   43DOPC  H11Y 5912   3.408   0.071   4.316  0.7089  0.0349  1.6337
   43DOPC  C312 5913   3.476  -0.099   4.185  0.0551  0.6142 -0.0508
   43DOPC  H12X 5914   3.510  -0.014   4.122 -0.3326  1.0937  0.3860
   43DOPC  H12Y 5915   3.390  -0.149   4.136 -0.4406  3.0441 -1.8399
   43DOPC  C313 5916   3.583  -0.206   4.209 -0.0414  0.3846  0.7435
   43DOPC  H13X 5917   3.664  -0.170   4.276  1.4585  2.1632 -1.8643
   43DOPC  H13Y 5918   3.519  -0.283   4.258 -0.2158  0.0928  0.0652
   43DOPC  C314 5919   3.644  -0.267   4.080  0.3706  0.1835  0.0061
   43DOPC  H14X 5920   3.701  -0.358   4.109  0.4482 -0.5273 -2.2009
   43DOPC  H14Y 5921   3.560  -0.296   4.014 -1.3307  2.7472  0.9077
   43DOPC  C315 5922   3.742  -0.178   4.003 -0.7303  0.1657 -0.4871
   43DOPC  H15X 5923   3.833  -0.153   4.061  0.9148 -1.4862 -2.2093
   43DOPC  H15Y 5924   3.699  -0.078   3.981 -0.2377  1.1988  2.6732
   43DOPC  C316 5925   3.787  -0.238   3.869  0.0893  0.2022  0.5317
   43DOPC  H16X 5926   3.852  -0.327   3.882 -0.4151 -0.0562  1.3599
   43DOPC  H16Y 5927   3.695  -0.275   3.820  0.8243 -0.3650 -0.4346
   43DOPC  C317 5928   3.859  -0.139   3.774 -0.2914 -0.0213 -0.2985
   43DOPC  H17X 5929   3.952  -0.110   3.827 -0.9466 -0.0651  0.9075
   43DOPC  H17Y 5930   3.868  -0.192   3.677  1.9565  1.7603 -1.1599
   43DOPC  C318 5931   3.792  -0.008   3.734 -0.0910  0.4546  0.3348
   43DOPC  H18X 5932   3.788   0.070   3.813  0.5023  0.9894 -0.1506
   43DOPC  H18Y 5933   3.844   0.034   3.644 -0.2992 -0.1891 -0.0948
   43DOPC  H18Z 5934   3.691  -0.023   3.691  0.2512 -1.0301 -0.0193
   44DOPC     N 5935   6.354   1.303   6.212 -0.5487 -0.9814 -0.3709
   44DOPC   C12 5936   6.284   1.347   6.082  0.1611 -0.6866  0.5850
   44DOPC  H12A 5937   6.182   1.374   6.105  0.0306  1.1273 -1.7582
   44DOPC  H12B 5938   6.295   1.260   6.018  0.7739 -0.1755 -0.0137
   44DOPC   C13 5939   6.305   1.175   6.261  0.0376  0.2207  0.5910
   44DOPC  H13A 5940   6.352   1.144   6.354  2.3836  1.6866 -0.0253
   44DOPC  H13B 5941   6.202   1.180   6.292  0.8816  1.1536  3.5628
   44DOPC  H13C 5942   6.318   1.089   6.197  0.6875 -0.7504  1.9763
   44DOPC   C14 5943   6.326   1.410   6.316 -0.2449  0.0294 -0.4705
   44DOPC  H14A 5944   6.223   1.404   6.347 -0.7600  1.4101 -1.7723
   44DOPC  H14B 5945   6.391   1.402   6.402 -0.4972  2.2258 -0.0122
   44DOPC  H14C 5946   6.345   1.501   6.261  0.1730 -0.9990 -2.1225
   44DOPC   C15 5947   6.502   1.287   6.188 -0.2054  0.2196  0.4860
   44DOPC  H15A 5948   6.544   1.273   6.287 -1.0758 -2.0231  0.6051
   44DOPC  H15B 5949   6.531   1.382   6.145 -0.3349  0.4366  0.8785
   44DOPC  H15C 5950   6.522   1.200   6.128 -1.2269 -0.4830  1.1279
   44DOPC   C11 5951   6.353   1.466   5.996 -0.3927  0.4999  0.1043
   44DOPC  H11A 5952   6.455   1.430   5.968 -0.4424  0.5847 -0.1904
   44DOPC  H11B 5953   6.297   1.483   5.902 -1.3614 -0.2862  0.5229
   44DOPC     P 5954   6.400   1.725   5.995 -0.2051  0.1806  0.1387
   44DOPC   O13 5955   6.499   1.797   6.084 -0.7075 -0.5675  0.0674
   44DOPC   O14 5956   6.273   1.798   5.964 -0.1089 -0.3939 -0.4576
   44DOPC   O12 5957   6.355   1.588   6.068  0.0724 -0.0984 -0.3644
   44DOPC   O11 5958   6.465   1.666   5.856  0.5067  0.2340 -0.7554
   44DOPC    C1 5959   6.599   1.666   5.823  0.5413 -0.1726 -0.6573
   44DOPC    HA 5960   6.621   1.599   5.737 -0.5865 -0.2519 -0.8979
   44DOPC    HB 5961   6.667   1.650   5.909 -0.2315  2.9287  0.6743
   44DOPC    C2 5962   6.633   1.811   5.767  1.0036 -0.0357 -0.5662
   44DOPC    HS 5963   6.621   1.882   5.852 -1.6949 -0.3825 -0.5741
   44DOPC   O21 5964   6.534   1.847   5.673  0.4901  0.6278 -0.0738
   44DOPC   C21 5965   6.530   1.980   5.654 -0.6924 -0.3514  0.5786
   44DOPC   O22 5966   6.582   2.069   5.719 -0.3641  0.8509  0.5257
   44DOPC   C22 5967   6.447   2.005   5.533  0.7368 -0.0996  0.2241
   44DOPC   H2R 5968   6.339   1.985   5.549  0.2896 -0.0932 -2.3188
   44DOPC   H2S 5969   6.470   1.933   5.452 -3.1942 -0.7694 -0.5009
   44DOPC    C3 5970   6.785   1.824   5.718  0.1743  0.6540  0.1264
   44DOPC    HX 5971   6.849   1.754   5.775 -1.3878 -0.6864  0.3289
   44DOPC    HY 5972   6.819   1.921   5.760  2.1706  0.9974 -2.1222
   44DOPC   O31 5973   6.811   1.828   5.573  0.2777  0.0385  0.0761
   44DOPC   C31 5974   6.940   1.819   5.540  0.3652 -0.0697 -0.0392
   44DOPC   O32 5975   7.032   1.850   5.613  0.2240  0.6779  0.0772
   44DOPC   C32 5976   6.958   1.792   5.385  0.2278 -0.6083 -0.5631
   44DOPC   H2X 5977   7.056   1.743   5.369  0.7436  0.6189 -1.2850
   44DOPC   H2Y 5978   6.874   1.728   5.351 -0.5170  0.4501 -0.7672
   44DOPC   C23 5979   6.468   2.148   5.475  0.2505  0.4349  0.1773
   44DOPC   H3R 5980   6.574   2.169   5.447 -0.0914 -0.8320 -2.3587
   44DOPC   H3S 5981   6.437   2.217   5.557 -0.0022  2.2099 -1.3333
   44DOPC   C24 5982   6.385   2.173   5.350 -0.4454 -0.5597 -0.4347
   44DOPC   H4R 5983   6.282   2.135   5.366 -0.5698  0.3043  0.9512
   44DOPC   H4S 5984   6.449   2.126   5.271 -0.5950 -1.3891 -0.0796
   44DOPC   C25 5985   6.368   2.322   5.316 -0.0343 -0.1721  0.3289
   44DOPC   H5R 5986   6.468   2.370   5.311 -0.6023  0.9075 -2.0133
   44DOPC   H5S 5987   6.320   2.378   5.399  1.6776  0.0416  1.2187
   44DOPC   C26 5988   6.295   2.351   5.186 -0.5577 -0.3728  0.4323
   44DOPC   H6R 5989   6.196   2.302   5.191  0.9741 -3.8458  0.4675
   44DOPC   H6S 5990   6.349   2.294   5.106 -1.5999 -1.0181  0.1750
   44DOPC   C27 5991   6.284   2.491   5.147 -0.2956  0.2547 -0.5732
   44DOPC   H7R 5992   6.380   2.540   5.176  0.9063 -2.3514  0.1174
   44DOPC   H7S 5993   6.210   2.548   5.207 -0.7664 -0.2797 -0.6380
   44DOPC   C28 5994   6.245   2.513   5.002  0.6669  0.4616 -0.2353
   44DOPC   H8R 5995   6.221   2.620   4.985  0.1900 -0.0235 -3.0099
   44DOPC   H8S 5996   6.156   2.448   4.990 -0.2828  1.2671  2.0492
   44DOPC   C29 5997   6.357   2.472   4.907 -0.3828 -0.4590  0.0184
   44DOPC   H9R 5998   6.456   2.506   4.940 -0.6138  1.8665 -1.4452
   44DOPC  C210 5999   6.356   2.402   4.792 -0.0227 -0.1289 -0.1369
   44DOPC  H10R 6000   6.451   2.373   4.744 -0.5417 -1.3874 -0.4557
   44DOPC  C211 6001   6.234   2.362   4.715 -0.1840 -0.0665 -0.0285
   44DOPC  H11R 6002   6.155   2.370   4.792  0.7947 -1.5579  1.2004
   44DOPC  H11S 6003   6.232   2.259   4.673  1.1406 -0.3984  0.6612
   44DOPC  C212 6004   6.211   2.465   4.603  0.5026  0.4324 -0.4384
   44DOPC  H12R 6005   6.294   2.448   4.531  1.4969  0.4056  0.6858
   44DOPC  H12S 6006   6.224   2.565   4.651  1.5831 -0.2611  0.7785
   44DOPC  C213 6007   6.073   2.455   4.546 -0.4643  0.6037 -0.6761
   44DOPC  H13R 6008   6.006   2.452   4.634 -0.6004  1.6210 -0.7266
   44DOPC  H13S 6009   6.040   2.366   4.488 -1.5752  0.6631 -0.1512
   44DOPC  C214 6010   6.051   2.584   4.475  0.4493 -0.4544  0.2044
   44DOPC  H14R 6011   6.110   2.592   4.382  2.9500 -1.4580  1.5994
   44DOPC  H14S 6012   6.069   2.679   4.530 -1.1301 -0.5064  0.8850
   44DOPC  C215 6013   5.912   2.602   4.415 -0.1938  0.5540  0.1622
   44DOPC  H15R 6014   5.831   2.607   4.491 -0.4756 -1.8325  0.0786
   44DOPC  H15S 6015   5.883   2.508   4.363  1.1363 -0.8104  1.8213
   44DOPC  C216 6016   5.913   2.719   4.317 -0.3023  0.0232 -0.6331
   44DOPC  H16R 6017   5.968   2.687   4.226  0.7492 -0.1815  0.0501
   44DOPC  H16S 6018   5.970   2.802   4.364 -1.2525  0.1577  0.2982
   44DOPC  C217 6019   5.772   2.771   4.293 -0.6704 -0.4392 -0.0857
   44DOPC  H17R 6020   5.706   2.694   4.338 -0.9715  0.5961  1.3193
   44DOPC  H17S 6021   5.751   2.784   4.184  0.0222 -0.2837 -0.2022
   44DOPC  C218 6022   5.733   2.900   4.376 -0.4777  0.4176  0.4953
   44DOPC  H18R 6023   5.795   2.908   4.468  0.5942 -0.8021 -0.0899
   44DOPC  H18S 6024   5.627   2.894   4.410 -0.7447 -2.0017 -0.6022
   44DOPC  H18T 6025   5.758   2.998   4.330  2.2312 -0.2674  0.3519
   44DOPC   C33 6026   6.960   1.927   5.304  0.0769  0.0179 -0.5495
   44DOPC   H3X 6027   7.063   1.952   5.271 -1.0714  1.6799 -3.1432
   44DOPC   H3Y 6028   6.942   2.014   5.371 -0.7651 -1.3095  1.0474
   44DOPC   C34 6029   6.866   1.934   5.191  0.5220 -0.4468  0.4199
   44DOPC   H4X 6030   6.883   1.856   5.114 -1.6341 -1.5336  0.9636
   44DOPC   H4Y 6031   6.886   2.033   5.145 -0.3263 -0.8352 -0.8332
   44DOPC   C35 6032   6.721   1.934   5.238 -0.1189 -0.3065  0.1050
   44DOPC   H5X 6033   6.680   2.013   5.304  1.0856 -0.6549  1.3213
   44DOPC   H5Y 6034   6.702   1.844   5.301 -1.9711 -1.1744 -1.5682
   44DOPC   C36 6035   6.615   1.912   5.127  0.0134 -0.0708  0.5223
   44DOPC   H6X 6036   6.636   1.818   5.071 -0.1045  0.1237  0.1467
   44DOPC   H6Y 6037   6.514   1.907   5.172  1.2353 -1.8643  3.4034
   44DOPC   C37 6038   6.615   2.024   5.025  0.4951  0.0515 -0.2381
   44DOPC   H7X 6039   6.598   2.121   5.075  4.1931  0.6296  0.1378
   44DOPC   H7Y 6040   6.716   2.030   4.979  0.3419  0.4598 -0.5251
   44DOPC   C38 6041   6.511   2.003   4.907 -0.1063  0.8318 -0.6374
   44DOPC   H8X 6042   6.523   2.100   4.855 -0.3886  1.6893  0.8302
   44DOPC   H8Y 6043   6.402   2.004   4.931 -0.3750  0.0212 -1.7527
   44DOPC   C39 6044   6.556   1.894   4.807  0.1904 -0.1952 -0.1131
   44DOPC   H9X 6045   6.566   1.789   4.838 -0.0305 -0.3922 -0.6992
   44DOPC  C310 6046   6.593   1.922   4.676 -0.4150 -0.1370 -0.7354
   44DOPC  H10X 6047   6.618   1.836   4.611 -1.5261 -2.0795  1.2658
   44DOPC  C311 6048   6.609   2.064   4.621 -0.0470 -0.1617  0.6363
   44DOPC  H11X 6049   6.704   2.071   4.563  0.4346  1.4256  1.5644
   44DOPC  H11Y 6050   6.637   2.137   4.700  2.3013 -0.0614 -0.1786
   44DOPC  C312 6051   6.493   2.117   4.536  0.6977  0.5585 -0.6678
   44DOPC  H12X 6052   6.509   2.225   4.515 -4.8978  1.7244 -0.3855
   44DOPC  H12Y 6053   6.391   2.105   4.577  0.5968 -2.6497 -1.5675
   44DOPC  C313 6054   6.479   2.038   4.396  0.8486 -0.2777 -0.2044
   44DOPC  H13X 6055   6.414   1.953   4.426 -0.0719  0.7185  0.7420
   44DOPC  H13Y 6056   6.423   2.106   4.328 -0.4057 -0.5852  0.4903
   44DOPC  C314 6057   6.610   2.006   4.321  0.7750  0.1819 -0.5434
   44DOPC  H14X 6058   6.663   2.103   4.312 -0.1875  0.7066 -0.7163
   44DOPC  H14Y 6059   6.677   1.939   4.380  3.8028  3.2339 -0.1594
   44DOPC  C315 6060   6.582   1.955   4.184  0.5842 -0.0206  0.4009
   44DOPC  H15X 6061   6.514   2.023   4.128  2.4073  1.0080 -0.6755
   44DOPC  H15Y 6062   6.530   1.857   4.191  0.7159  0.0134  2.5742
   44DOPC  C316 6063   6.705   1.937   4.096  0.2701 -0.3173 -0.4447
   44DOPC  H16X 6064   6.754   2.036   4.088 -1.1090  0.5986  1.6146
   44DOPC  H16Y 6065   6.782   1.875   4.147  0.2006  1.0926  1.4736
   44DOPC  C317 6066   6.673   1.878   3.953 -0.2687 -0.7564  0.4392
   44DOPC  H17X 6067   6.661   1.768   3.956 -2.7084 -0.7147 -2.8837
   44DOPC  H17Y 6068   6.575   1.927   3.931 -0.0691 -0.3987  0.3408
   44DOPC  C318 6069   6.779   1.932   3.861 -0.1657 -0.2051  0.2144
   44DOPC  H18X 6070   6.775   1.907   3.752 -2.2901 -0.0854  0.2271
   44DOPC  H18Y 6071   6.768   2.042   3.859  0.3801 -0.1565 -0.5217
   44DOPC  H18Z 6072   6.879   1.890   3.886 -0.0123 -0.1097 -0.2254
   45DOPC     N 6073   2.555   2.053   5.338  0.1497 -0.3814  0.4887
   45DOPC   C12 6074   2.490   2.183   5.309  0.1577  0.2043 -0.0582
   45DOPC  H12A 6075   2.539   2.215   5.218  2.4614  1.2065  1.4438
   45DOPC  H12B 6076   2.503   2.250   5.392  2.1575  1.1123 -1.0150
   45DOPC   C13 6077   2.544   1.952   5.227 -0.0021  0.2752  0.5378
   45DOPC  H13A 6078   2.570   1.853   5.259 -1.0510 -0.6749 -1.3987
   45DOPC  H13B 6079   2.442   1.940   5.196  0.0110  1.2678  0.0679
   45DOPC  H13C 6080   2.598   1.972   5.136 -1.3626 -0.1211 -0.3852
   45DOPC   C14 6081   2.478   2.001   5.449  0.0595 -0.2776  0.1917
   45DOPC  H14A 6082   2.510   1.911   5.499 -1.2376 -0.8019  0.1158
   45DOPC  H14B 6083   2.475   2.072   5.530  0.0337  0.0499 -0.0962
   45DOPC  H14C 6084   2.377   1.984   5.415  0.5894 -1.9998 -0.6216
   45DOPC   C15 6085   2.698   2.068   5.382 -0.0212  0.2181 -0.5200
   45DOPC  H15A 6086   2.708   2.119   5.477 -1.5534  1.2623 -0.8830
   45DOPC  H15B 6087   2.763   2.122   5.315 -0.2927  1.5035  0.2196
   45DOPC  H15C 6088   2.737   1.968   5.395 -2.4732 -0.8866 -1.1185
   45DOPC   C11 6089   2.339   2.188   5.279 -0.5596  0.9830  0.5065
   45DOPC  H11A 6090   2.313   2.280   5.223 -1.5356 -0.1645 -0.9931
   45DOPC  H11B 6091   2.311   2.116   5.199 -1.9332  2.7060 -0.6260
   45DOPC     P 6092   2.237   2.306   5.480 -0.0240 -0.1973 -0.3660
   45DOPC   O13 6093   2.348   2.324   5.576 -0.4002  0.1969  0.1736
   45DOPC   O14 6094   2.103   2.311   5.540  0.5321 -0.0703  0.0155
   45DOPC   O12 6095   2.255   2.172   5.392 -0.4673  0.2007  0.5053
   45DOPC   O11 6096   2.243   2.419   5.369  0.3042 -0.0021  0.2710
   45DOPC    C1 6097   2.115   2.471   5.318  0.7423  0.4299 -0.5210
   45DOPC    HA 6098   2.137   2.568   5.268  0.2593  0.5261 -0.5519
   45DOPC    HB 6099   2.050   2.495   5.404 -0.2313 -0.9445 -0.8463
   45DOPC    C2 6100   2.041   2.376   5.224 -0.6251  0.6328 -0.1665
   45DOPC    HS 6101   2.016   2.291   5.290  1.8880  0.0324  0.1221
   45DOPC   O21 6102   2.123   2.335   5.109  0.5303 -0.0078  0.0965
   45DOPC   C21 6103   2.083   2.231   5.038 -0.0851  0.1868 -0.3693
   45DOPC   O22 6104   1.995   2.155   5.065  0.1461 -0.1495  0.1579
   45DOPC   C22 6105   2.177   2.237   4.912  0.0272 -0.4545 -0.5945
   45DOPC   H2R 6106   2.278   2.235   4.959 -0.2514 -1.4752 -0.0089
   45DOPC   H2S 6107   2.176   2.338   4.865 -1.2118 -0.0894  0.1771
   45DOPC    C3 6108   1.910   2.442   5.173  0.1339  0.7699  0.7772
   45DOPC    HX 6109   1.853   2.477   5.261 -2.5640  1.0367 -0.9552
   45DOPC    HY 6110   1.844   2.364   5.130  2.3341 -0.3066 -0.8604
   45DOPC   O31 6111   1.933   2.549   5.074  1.0078 -1.0100  0.3059
   45DOPC   C31 6112   1.863   2.660   5.081 -0.1454 -0.2092 -0.1614
   45DOPC   O32 6113   1.781   2.690   5.168  0.0909 -0.0264  0.4837
   45DOPC   C32 6114   1.892   2.751   4.966  0.0448 -0.1051  0.3356
   45DOPC   H2X 6115   1.993   2.791   4.990  0.0499  1.3274 -1.8225
   45DOPC   H2Y 6116   1.912   2.685   4.879  2.2032  1.2000 -0.2224
   45DOPC   C23 6117   2.155   2.128   4.813 -0.2083 -1.2785 -0.0944
   45DOPC   H3R 6118   2.050   2.128   4.777  0.0217  1.2477 -0.9685
   45DOPC   H3S 6119   2.172   2.033   4.867 -2.2793 -1.1823  0.8330
   45DOPC   C24 6120   2.246   2.144   4.683 -0.2454 -0.7861 -0.6874
   45DOPC   H4R 6121   2.209   2.224   4.616 -1.4413 -0.0645  0.7888
   45DOPC   H4S 6122   2.253   2.045   4.633 -2.8054 -1.0165 -0.7056
   45DOPC   C25 6123   2.399   2.171   4.718  0.1410 -1.0367 -0.3881
   45DOPC   H5R 6124   2.425   2.097   4.797  0.9305  0.1298  0.4801
   45DOPC   H5S 6125   2.405   2.276   4.754  0.3791 -0.7647 -1.1989
   45DOPC   C26 6126   2.498   2.165   4.602 -0.3802 -0.2080  0.1798
   45DOPC   H6R 6127   2.507   2.058   4.571 -2.2379 -0.0679 -0.9653
   45DOPC   H6S 6128   2.598   2.199   4.636 -0.2912  1.7616 -1.8503
   45DOPC   C27 6129   2.447   2.244   4.484 -0.2809  0.5450  0.0305
   45DOPC   H7R 6130   2.417   2.345   4.519  3.0719  1.3948  0.7696
   45DOPC   H7S 6131   2.353   2.195   4.452 -0.6089 -0.9736  3.0022
   45DOPC   C28 6132   2.552   2.262   4.367  0.0173  0.1141  0.8457
   45DOPC   H8R 6133   2.499   2.306   4.280 -0.4087  1.1686  1.6283
   45DOPC   H8S 6134   2.585   2.164   4.324 -0.1320  0.4267  0.0021
   45DOPC   C29 6135   2.670   2.351   4.401  0.5875  0.1699 -0.3606
   45DOPC   H9R 6136   2.724   2.314   4.490 -2.0249 -2.5602  0.2800
   45DOPC  C210 6137   2.696   2.464   4.338  0.6573 -0.4640 -0.2722
   45DOPC  H10R 6138   2.788   2.516   4.371  2.1221 -3.0443 -0.0260
   45DOPC  C211 6139   2.634   2.523   4.217 -0.1380 -0.3271  0.2415
   45DOPC  H11R 6140   2.596   2.448   4.145  1.2147 -0.1371 -0.7142
   45DOPC  H11S 6141   2.706   2.587   4.162 -1.6303  0.0721 -1.3256
   45DOPC  C212 6142   2.519   2.621   4.243 -0.4094  0.4474 -0.7482
   45DOPC  H12R 6143   2.560   2.703   4.306 -1.3402  1.6158 -1.6002
   45DOPC  H12S 6144   2.432   2.569   4.290  1.5278 -1.4470  0.9605
   45DOPC  C213 6145   2.471   2.701   4.119  0.2073  0.1658  0.0345
   45DOPC  H13R 6146   2.468   2.631   4.032  0.6380 -0.2481  0.3454
   45DOPC  H13S 6147   2.545   2.778   4.090 -0.0987 -0.1445 -1.6837
   45DOPC  C214 6148   2.334   2.769   4.141 -0.4114 -0.3581 -0.5660
   45DOPC  H14R 6149   2.343   2.836   4.230 -1.9218  2.7167 -2.5640
   45DOPC  H14S 6150   2.257   2.692   4.165 -1.9121  0.8603 -1.2813
   45DOPC  C215 6151   2.274   2.851   4.025  0.4554 -0.2722 -0.3223
   45DOPC  H15R 6152   2.178   2.899   4.056 -0.1326 -0.2595 -2.0305
   45DOPC  H15S 6153   2.265   2.790   3.933  0.8564 -1.4637  0.4172
   45DOPC  C216 6154   2.361   2.974   3.990  0.5070 -0.3728  0.4699
   45DOPC  H16R 6155   2.462   2.935   3.964 -0.1799 -0.7895 -1.7226
   45DOPC  H16S 6156   2.362   3.044   4.077 -3.2858  1.2970 -0.6571
   45DOPC  C217 6157   2.320   3.064   3.866 -0.2657 -0.1415 -0.7388
   45DOPC  H17R 6158   2.213   3.091   3.874 -0.1357  0.7764 -1.8563
   45DOPC  H17S 6159   2.314   2.996   3.778 -4.0523 -1.6047  0.4548
   45DOPC  C218 6160   2.416   3.184   3.842  0.0924  0.2780  0.1938
   45DOPC  H18R 6161   2.378   3.263   3.911  0.1058  2.3726 -2.0876
   45DOPC  H18S 6162   2.404   3.219   3.738 -0.2987 -0.7067 -0.1057
   45DOPC  H18T 6163   2.523   3.164   3.864  0.0342  1.8215  2.2505
   45DOPC   C33 6164   1.785   2.866   4.949  0.0024 -0.8453 -0.7929
   45DOPC   H3X 6165   1.770   2.916   5.047 -0.3305 -3.0767  0.3406
   45DOPC   H3Y 6166   1.686   2.817   4.947 -0.1302 -0.6070 -0.3035
   45DOPC   C34 6167   1.820   2.971   4.844 -0.0155  0.0293 -0.1352
   45DOPC   H4X 6168   1.742   3.050   4.851 -0.4421 -0.4682  0.8600
   45DOPC   H4Y 6169   1.814   2.931   4.740 -2.5284 -0.2124  0.0188
   45DOPC   C35 6170   1.958   3.027   4.879 -0.2939 -0.2832  0.1088
   45DOPC   H5X 6171   1.969   3.095   4.792 -0.7591 -1.0395 -0.5659
   45DOPC   H5Y 6172   2.041   2.954   4.866  1.1653  1.5384 -1.3098
   45DOPC   C36 6173   1.969   3.098   5.001 -0.4305  0.2483 -0.5754
   45DOPC   H6X 6174   1.882   3.167   4.999 -0.4093  0.3012 -0.0059
   45DOPC   H6Y 6175   1.957   3.031   5.089  0.3072  0.2622 -0.4541
   45DOPC   C37 6176   2.093   3.191   5.015  0.3998  0.4106  0.1627
   45DOPC   H7X 6177   2.192   3.143   5.002  1.2049  2.2756 -1.0504
   45DOPC   H7Y 6178   2.088   3.271   4.937  3.0447  0.7475  0.2591
   45DOPC   C38 6179   2.100   3.262   5.156  0.0436 -0.2547 -0.0518
   45DOPC   H8X 6180   2.193   3.322   5.157 -0.6361  0.8800 -1.5918
   45DOPC   H8Y 6181   2.106   3.189   5.240  1.0168 -0.4839 -0.3092
   45DOPC   C39 6182   1.985   3.353   5.171  0.2801  0.5698  0.2494
   45DOPC   H9X 6183   1.895   3.298   5.203  1.6076 -0.8796  1.6771
   45DOPC  C310 6184   1.977   3.484   5.149 -1.5541  0.8387  0.2892
   45DOPC  H10X 6185   1.879   3.529   5.171 -3.2508 -1.0993 -2.6443
   45DOPC  C311 6186   2.092   3.573   5.106  0.7005 -0.5091  0.2369
   45DOPC  H11X 6187   2.187   3.518   5.089 -0.2620 -1.5777 -1.9836
   45DOPC  H11Y 6188   2.114   3.645   5.188 -1.8838 -0.7348  1.2118
   45DOPC  C312 6189   2.066   3.659   4.974  0.2479  0.0366 -0.2121
   45DOPC  H12X 6190   2.144   3.738   4.971 -1.1244  1.4237 -1.5548
   45DOPC  H12Y 6191   1.968   3.711   4.976 -0.9268 -2.0516  0.0197
   45DOPC  C313 6192   2.073   3.572   4.852  0.0622  0.5947  0.7844
   45DOPC  H13X 6193   2.171   3.521   4.855 -0.1843  0.0536  0.0139
   45DOPC  H13Y 6194   1.994   3.494   4.859  2.3654 -1.9800 -0.0206
   45DOPC  C314 6195   2.061   3.652   4.718  0.2248 -0.0241 -0.7159
   45DOPC  H14X 6196   1.960   3.697   4.704 -0.4662 -1.3003 -0.0268
   45DOPC  H14Y 6197   2.145   3.725   4.713  0.8351 -0.3694  2.3115
   45DOPC  C315 6198   2.075   3.553   4.597  0.3422 -0.0574 -0.0917
   45DOPC  H15X 6199   1.996   3.474   4.597  0.8830 -0.6076 -0.6605
   45DOPC  H15Y 6200   2.170   3.495   4.599  0.1966 -0.3165 -0.5910
   45DOPC  C316 6201   2.070   3.622   4.463  0.1963 -0.7358 -0.8466
   45DOPC  H16X 6202   2.144   3.705   4.464  1.0302 -1.4613 -0.3284
   45DOPC  H16Y 6203   2.094   3.561   4.374  1.1691  1.1211 -1.9292
   45DOPC  C317 6204   1.932   3.678   4.420  0.2530 -0.4289 -0.4342
   45DOPC  H17X 6205   1.868   3.594   4.455  0.7107 -0.5383  0.1774
   45DOPC  H17Y 6206   1.892   3.766   4.475  1.5111  1.0698 -1.8174
   45DOPC  C318 6207   1.928   3.705   4.269  0.0247 -0.0540 -0.2789
   45DOPC  H18X 6208   1.955   3.607   4.224 -2.3700 -0.1047 -1.7881
   45DOPC  H18Y 6209   1.823   3.734   4.247 -0.2120 -1.2689 -0.8488
   45DOPC  H18Z 6210   2.001   3.782   4.236  1.4620 -0.4787  1.7668
   46DOPC     N 6211   2.576   1.403   5.573  0.2921 -0.3445 -0.3105
   46DOPC   C12 6212   2.469   1.303   5.598  0.0273 -0.1251 -0.7228
   46DOPC  H12A 6213   2.376   1.333   5.551  1.1364  1.2391 -2.1594
   46DOPC  H12B 6214   2.430   1.308   5.699  0.8880 -2.7600 -0.1771
   46DOPC   C13 6215   2.640   1.384   5.435  0.7296  0.8253  0.6637
   46DOPC  H13A 6216   2.564   1.384   5.358  0.9945  1.5542  0.3967
   46DOPC  H13B 6217   2.713   1.455   5.400 -2.0947  2.7388 -1.8450
   46DOPC  H13C 6218   2.669   1.280   5.429  1.2243  1.0009 -0.1696
   46DOPC   C14 6219   2.678   1.403   5.677 -0.2859  0.0421 -0.0091
   46DOPC  H14A 6220   2.738   1.313   5.673  1.6075  1.2075  0.7471
   46DOPC  H14B 6221   2.745   1.487   5.669 -0.1483 -0.0177  0.5164
   46DOPC  H14C 6222   2.646   1.420   5.778 -0.9409 -0.4423 -0.1285
   46DOPC   C15 6223   2.508   1.532   5.570 -0.5504  0.4585 -0.3342
   46DOPC  H15A 6224   2.571   1.615   5.543 -0.7824  0.4823 -0.8109
   46DOPC  H15B 6225   2.458   1.554   5.664 -0.4433  0.6119 -0.3129
   46DOPC  H15C 6226   2.437   1.523   5.489 -0.8366  0.3610 -0.0784
   46DOPC   C11 6227   2.509   1.159   5.560  0.1297 -0.2701  1.1970
   46DOPC  H11A 6228   2.617   1.151   5.583  0.8749  1.3814 -1.2827
   46DOPC  H11B 6229   2.467   1.078   5.622  2.5981 -3.4954 -1.0102
   46DOPC     P 6230   2.347   1.122   5.366 -0.0690 -0.0426 -0.6448
   46DOPC   O13 6231   2.317   1.243   5.288 -0.1900 -0.3429  0.3453
   46DOPC   O14 6232   2.252   1.088   5.478 -0.3827 -0.4733  0.2470
   46DOPC   O12 6233   2.493   1.135   5.423 -0.2433  0.2736 -0.0244
   46DOPC   O11 6234   2.354   0.997   5.263 -0.2757  0.0536 -0.3235
   46DOPC    C1 6235   2.417   1.023   5.134 -1.0701 -1.1055 -0.5372
   46DOPC    HA 6236   2.521   1.059   5.150 -0.6374 -1.5986 -2.0931
   46DOPC    HB 6237   2.360   1.104   5.083  1.5696  1.8993  0.8821
   46DOPC    C2 6238   2.433   0.899   5.046  0.4905 -0.0589 -0.2057
   46DOPC    HS 6239   2.439   0.935   4.941 -0.5147  0.8261  0.0140
   46DOPC   O21 6240   2.316   0.807   5.066  0.4445 -0.4337  0.0143
   46DOPC   C21 6241   2.199   0.864   5.046 -0.0543 -0.0381 -0.6286
   46DOPC   O22 6242   2.178   0.967   4.983 -0.2516  0.4267  0.5598
   46DOPC   C22 6243   2.094   0.781   5.109 -0.2527 -0.0456 -0.2722
   46DOPC   H2R 6244   2.078   0.819   5.213  0.9751 -0.4718  0.0939
   46DOPC   H2S 6245   2.131   0.677   5.127 -1.6363 -0.8139 -1.6945
   46DOPC    C3 6246   2.554   0.814   5.089 -0.1961 -0.0852 -0.4241
   46DOPC    HX 6247   2.527   0.777   5.191  0.2939 -1.2763 -0.7078
   46DOPC    HY 6248   2.637   0.887   5.084 -1.3384  1.1634 -2.2552
   46DOPC   O31 6249   2.590   0.704   4.995  0.1628  0.4277  0.0850
   46DOPC   C31 6250   2.571   0.581   5.032  0.4152  0.1195 -0.3507
   46DOPC   O32 6251   2.519   0.545   5.140  0.1337 -0.0221  0.4515
   46DOPC   C32 6252   2.639   0.479   4.939 -0.6644  0.0521  0.2849
   46DOPC   H2X 6253   2.728   0.448   4.999 -2.1044  0.9131  3.0312
   46DOPC   H2Y 6254   2.567   0.396   4.923  0.2450 -0.5907 -0.6179
   46DOPC   C23 6255   1.972   0.777   5.025 -0.3121  0.2279 -0.0390
   46DOPC   H3R 6256   1.938   0.877   4.988  0.3164 -0.1517 -1.7395
   46DOPC   H3S 6257   1.895   0.726   5.087 -0.6646  0.8618  0.0523
   46DOPC   C24 6258   1.991   0.697   4.898  0.2843 -0.0382  0.8479
   46DOPC   H4R 6259   1.984   0.586   4.907 -1.7572 -0.4849 -3.4074
   46DOPC   H4S 6260   2.080   0.716   4.835 -0.6426 -0.8261 -0.7666
   46DOPC   C25 6261   1.892   0.738   4.786  0.5979 -0.2752 -0.6676
   46DOPC   H5R 6262   1.923   0.694   4.688  0.6282 -3.5589  0.6938
   46DOPC   H5S 6263   1.876   0.847   4.773  1.8841 -0.1301 -1.2166
   46DOPC   C26 6264   1.754   0.686   4.824 -0.4013  0.0158  0.5335
   46DOPC   H6R 6265   1.730   0.735   4.920  2.3409  2.1379  0.2532
   46DOPC   H6S 6266   1.748   0.578   4.849 -3.2427  0.6438  3.1430
   46DOPC   C27 6267   1.646   0.718   4.715  0.0663  0.1425 -0.4290
   46DOPC   H7R 6268   1.680   0.694   4.612 -0.2555 -1.6051 -0.1718
   46DOPC   H7S 6269   1.617   0.825   4.720  0.9654  0.4189 -0.9499
   46DOPC   C28 6270   1.523   0.633   4.732 -0.5602 -0.0193 -1.1910
   46DOPC   H8R 6271   1.571   0.533   4.731 -0.4287  0.0385 -0.8146
   46DOPC   H8S 6272   1.467   0.646   4.637  0.1891  0.7360 -1.5458
   46DOPC   C29 6273   1.436   0.673   4.853  0.2289  0.1999  0.5228
   46DOPC   H9R 6274   1.483   0.649   4.950 -1.8100 -0.6889  1.3432
   46DOPC  C210 6275   1.314   0.731   4.857  0.1278 -0.0062  0.1894
   46DOPC  H10R 6276   1.271   0.756   4.955  0.4228 -0.7941  0.5229
   46DOPC  C211 6277   1.224   0.765   4.741 -0.3755 -0.3044  0.1521
   46DOPC  H11R 6278   1.269   0.756   4.640 -2.0694  1.0870 -0.7809
   46DOPC  H11S 6279   1.179   0.866   4.738  0.4258  0.0325 -1.0096
   46DOPC  C212 6280   1.112   0.655   4.731  0.7998 -0.1687 -0.3328
   46DOPC  H12R 6281   1.151   0.552   4.715  0.2016 -0.3936 -0.3673
   46DOPC  H12S 6282   1.051   0.679   4.641  1.1784 -0.4870 -0.6825
   46DOPC  C213 6283   1.008   0.661   4.848 -0.2238  0.3823 -0.3333
   46DOPC  H13R 6284   0.979   0.768   4.855 -4.5260 -0.6696  1.0759
   46DOPC  H13S 6285   1.051   0.640   4.948  1.9382  0.2033 -1.2509
   46DOPC  C214 6286   0.870   0.595   4.828  0.5013 -0.2699  0.0410
   46DOPC  H14R 6287   0.808   0.610   4.919  2.0033  3.2666  0.6484
   46DOPC  H14S 6288   0.868   0.486   4.807 -1.2390 -0.0310 -1.2163
   46DOPC  C215 6289   0.791   0.656   4.715  0.7429  0.5195 -0.1222
   46DOPC  H15R 6290   0.808   0.605   4.618 -0.7440  0.4589 -0.3756
   46DOPC  H15S 6291   0.837   0.755   4.693  2.0508 -0.0049  0.1266
   46DOPC  C216 6292   0.643   0.661   4.752 -0.3491 -1.1352 -0.5297
   46DOPC  H16R 6293   0.630   0.697   4.856 -2.0220 -2.5548 -0.1865
   46DOPC  H16S 6294   0.588   0.564   4.750  0.7536 -2.0363  3.5357
   46DOPC  C217 6295   0.559   0.752   4.674  0.0576  0.1883 -0.5511
   46DOPC  H17R 6296   0.593   0.858   4.667 -0.2637  0.2308 -1.6755
   46DOPC  H17S 6297   0.460   0.741   4.722  1.3759 -0.0685  2.2950
   46DOPC  C218 6298   0.528   0.705   4.537 -0.1284 -0.9611  0.2046
   46DOPC  H18R 6299   0.612   0.733   4.470 -1.6112  2.1939 -0.5243
   46DOPC  H18S 6300   0.440   0.764   4.505 -1.4713 -2.3409  1.2108
   46DOPC  H18T 6301   0.523   0.595   4.522  0.6404 -0.9055 -0.5342
   46DOPC   C33 6302   2.658   0.526   4.796 -0.8022  0.6779 -0.1850
   46DOPC   H3X 6303   2.739   0.602   4.801  0.3002 -0.1339 -3.5469
   46DOPC   H3Y 6304   2.561   0.574   4.769 -0.4395  2.2745  1.1823
   46DOPC   C34 6305   2.716   0.416   4.703 -0.0646 -0.1289  0.2201
   46DOPC   H4X 6306   2.658   0.321   4.707  0.5724 -0.4766  1.5455
   46DOPC   H4Y 6307   2.814   0.394   4.750  1.0063  1.4262 -1.1336
   46DOPC   C35 6308   2.750   0.466   4.558  0.0241 -0.1580 -0.6388
   46DOPC   H5X 6309   2.851   0.512   4.559  1.0217 -2.2211  0.7587
   46DOPC   H5Y 6310   2.672   0.543   4.540  1.5467  2.4459  2.7280
   46DOPC   C36 6311   2.756   0.352   4.456 -0.3296 -0.6033 -0.3593
   46DOPC   H6X 6312   2.855   0.303   4.465  0.0606  0.3832  1.2924
   46DOPC   H6Y 6313   2.684   0.275   4.490  0.4981 -1.8335 -1.3049
   46DOPC   C37 6314   2.740   0.393   4.309  0.5537  0.6358  0.3329
   46DOPC   H7X 6315   2.661   0.471   4.309 -0.2791 -0.0716 -2.6106
   46DOPC   H7Y 6316   2.832   0.438   4.265  0.1410 -0.5047 -1.8277
   46DOPC   C38 6317   2.690   0.286   4.211 -0.0545  0.8973 -0.3446
   46DOPC   H8X 6318   2.686   0.321   4.105 -2.7399  2.5239  0.1950
   46DOPC   H8Y 6319   2.587   0.255   4.238  0.5448  0.8696  2.1616
   46DOPC   C39 6320   2.776   0.158   4.223  0.2605 -0.6108 -0.0670
   46DOPC   H9X 6321   2.788   0.118   4.325  1.5552  1.7221  0.7725
   46DOPC  C310 6322   2.837   0.085   4.127 -0.1510 -0.2745 -0.1053
   46DOPC  H10X 6323   2.897   0.000   4.164  0.9545  0.2322 -0.6807
   46DOPC  C311 6324   2.824   0.097   3.979 -0.2918  0.4735  0.3125
   46DOPC  H11X 6325   2.776   0.193   3.949  0.2521  0.7070  0.1822
   46DOPC  H11Y 6326   2.763   0.009   3.948  2.1011 -1.5471  1.0125
   46DOPC  C312 6327   2.964   0.079   3.911  0.4051 -0.8918  0.1073
   46DOPC  H12X 6328   3.026   0.157   3.960 -0.0122 -1.3575  1.4272
   46DOPC  H12Y 6329   2.940   0.108   3.807 -0.7791  0.5682  0.7408
   46DOPC  C313 6330   3.020  -0.064   3.893  0.6507 -0.1336  0.5705
   46DOPC  H13X 6331   3.064  -0.111   3.984 -0.8006 -1.0020  0.8559
   46DOPC  H13Y 6332   2.931  -0.118   3.854  0.1288 -0.1230  1.7005
   46DOPC  C314 6333   3.132  -0.076   3.783 -0.0124 -0.0608 -0.3839
   46DOPC  H14X 6334   3.087  -0.032   3.691  1.6306  0.3366 -1.0194
   46DOPC  H14Y 6335   3.219  -0.010   3.801  0.2404 -0.2408 -0.9239
   46DOPC  C315 6336   3.166  -0.225   3.759  0.3811 -0.0162 -0.1254
   46DOPC  H15X 6337   3.073  -0.276   3.725 -1.4874  3.4458 -0.7207
   46DOPC  H15Y 6338   3.196  -0.268   3.857 -1.5148 -0.9142  0.1103
   46DOPC  C316 6339   3.271  -0.244   3.659 -0.4382  0.5655  0.4467
   46DOPC  H16X 6340   3.243  -0.190   3.566  0.0455 -1.2404 -0.7945
   46DOPC  H16Y 6341   3.364  -0.208   3.707 -0.7327  1.3846  0.4238
   46DOPC  C317 6342   3.293  -0.388   3.608  0.3847  0.0405 -0.0941
   46DOPC  H17X 6343   3.207  -0.438   3.559 -1.1308  1.0674  1.3883
   46DOPC  H17Y 6344   3.381  -0.386   3.540  0.7128  3.1881  0.2561
   46DOPC  C318 6345   3.322  -0.488   3.718 -0.2051  0.3075  0.5108
   46DOPC  H18X 6346   3.238  -0.511   3.788  1.4480  1.0065  2.8637
   46DOPC  H18Y 6347   3.353  -0.586   3.675  1.9665  0.9492  0.4996
   46DOPC  H18Z 6348   3.409  -0.457   3.780  0.8475  0.2818 -0.9042
   47DOPC     N 6349   2.226   2.760   5.665 -0.6170  0.4273  0.3033
   47DOPC   C12 6350   2.335   2.842   5.588  0.1050  0.1983 -0.3118
   47DOPC  H12A 6351   2.415   2.879   5.650 -0.3316  2.7542 -1.1588
   47DOPC  H12B 6352   2.289   2.930   5.545 -0.7650  0.8103  1.7493
   47DOPC   C13 6353   2.097   2.756   5.582  0.0979  0.0348  0.2195
   47DOPC  H13A 6354   2.065   2.857   5.564  0.1853 -0.3182 -2.3810
   47DOPC  H13B 6355   2.117   2.732   5.478  0.8183  1.1821  0.0819
   47DOPC  H13C 6356   2.023   2.690   5.625  1.0899 -1.8896 -0.8510
   47DOPC   C14 6357   2.201   2.836   5.797  1.0106  0.9947 -0.0956
   47DOPC  H14A 6358   2.104   2.812   5.836  0.6039  0.0016 -1.6414
   47DOPC  H14B 6359   2.277   2.821   5.873  0.3540  1.4354  0.6540
   47DOPC  H14C 6360   2.200   2.943   5.783  0.9819  1.4337  2.6546
   47DOPC   C15 6361   2.282   2.625   5.691 -0.3464 -0.0240  0.7536
   47DOPC  H15A 6362   2.309   2.582   5.596 -2.2870  0.9579 -0.3015
   47DOPC  H15B 6363   2.203   2.560   5.726 -1.4248  0.4572 -0.6990
   47DOPC  H15C 6364   2.371   2.621   5.752  0.8883  1.4383 -0.8480
   47DOPC   C11 6365   2.407   2.768   5.476 -0.4959 -0.6522  0.1053
   47DOPC  H11A 6366   2.341   2.701   5.416  0.4129 -2.0059  0.5693
   47DOPC  H11B 6367   2.440   2.852   5.412  0.3768  0.2530  1.7039
   47DOPC     P 6368   2.636   2.756   5.592  0.1068  0.1977  0.1876
   47DOPC   O13 6369   2.755   2.665   5.600 -0.1158 -0.8314  0.2314
   47DOPC   O14 6370   2.578   2.798   5.719  0.1520 -0.2947 -0.2336
   47DOPC   O12 6371   2.521   2.685   5.514  0.8950 -0.0089  0.3288
   47DOPC   O11 6372   2.668   2.876   5.488  0.2422 -0.1937 -0.0559
   47DOPC    C1 6373   2.727   2.825   5.366  0.2426  0.4132 -0.3390
   47DOPC    HA 6374   2.654   2.762   5.312  1.1386 -1.3807  0.4714
   47DOPC    HB 6375   2.829   2.782   5.379  0.4333  0.8944 -0.1871
   47DOPC    C2 6376   2.752   2.946   5.271 -0.3297  0.5785  0.8373
   47DOPC    HS 6377   2.804   3.028   5.325  1.0495 -0.2767  0.8736
   47DOPC   O21 6378   2.628   3.007   5.230  0.0023 -0.3663 -0.2477
   47DOPC   C21 6379   2.646   3.133   5.163 -0.3502  0.2397  0.4217
   47DOPC   O22 6380   2.754   3.176   5.138 -0.0744 -0.7847  0.7146
   47DOPC   C22 6381   2.517   3.212   5.164 -0.3990  0.2898  0.0646
   47DOPC   H2R 6382   2.501   3.215   5.274  0.6816 -0.9119  0.2704
   47DOPC   H2S 6383   2.438   3.146   5.122  0.6456 -0.9541  0.0026
   47DOPC    C3 6384   2.831   2.890   5.154 -0.6259 -0.2639  0.1641
   47DOPC    HX 6385   2.919   2.841   5.200 -1.2744  1.4430  3.6063
   47DOPC    HY 6386   2.858   2.980   5.095 -1.8043  1.2521  1.7821
   47DOPC   O31 6387   2.745   2.801   5.074 -0.7395  0.6391 -0.4279
   47DOPC   C31 6388   2.817   2.752   4.971 -0.0646 -0.1598  0.5223
   47DOPC   O32 6389   2.938   2.765   4.963  0.2273  0.2944 -0.3424
   47DOPC   C32 6390   2.720   2.681   4.869 -0.1329 -0.1539 -0.5203
   47DOPC   H2X 6391   2.761   2.579   4.851 -1.7050 -0.9425  0.1795
   47DOPC   H2Y 6392   2.625   2.653   4.919  0.9255 -2.6384  0.2658
   47DOPC   C23 6393   2.525   3.350   5.099  0.2599 -0.6660  0.1318
   47DOPC   H3R 6394   2.604   3.415   5.142 -0.7243  1.3215 -0.9118
   47DOPC   H3S 6395   2.435   3.411   5.121  1.0225  0.8372 -0.7025
   47DOPC   C24 6396   2.535   3.338   4.949  0.2105  0.4352 -0.5200
   47DOPC   H4R 6397   2.622   3.272   4.932 -2.2811 -3.1912 -0.2797
   47DOPC   H4S 6398   2.557   3.435   4.900  0.8166  1.1576  1.1089
   47DOPC   C25 6399   2.414   3.262   4.890  0.5893  0.3141 -0.0922
   47DOPC   H5R 6400   2.318   3.298   4.930  0.0354 -0.1192 -0.9865
   47DOPC   H5S 6401   2.418   3.153   4.912 -0.1484  0.6284  1.7267
   47DOPC   C26 6402   2.405   3.268   4.737  0.0951 -0.2798 -0.0390
   47DOPC   H6R 6403   2.504   3.241   4.694  0.9398 -0.4145  1.9131
   47DOPC   H6S 6404   2.400   3.373   4.703 -0.3191 -0.3065 -0.0695
   47DOPC   C27 6405   2.292   3.185   4.679  0.3820  0.4461  0.2492
   47DOPC   H7R 6406   2.193   3.221   4.715 -0.5884 -0.2410 -1.5852
   47DOPC   H7S 6407   2.309   3.088   4.730  2.8255  0.6459 -0.0546
   47DOPC   C28 6408   2.276   3.183   4.526 -0.2434  0.0868  0.4612
   47DOPC   H8R 6409   2.376   3.181   4.478  0.0785  1.6908  0.9759
   47DOPC   H8S 6410   2.236   3.283   4.496 -0.8986 -1.2341 -3.6443
   47DOPC   C29 6411   2.191   3.070   4.462 -0.3863  0.0975 -0.2296
   47DOPC   H9R 6412   2.189   2.978   4.521 -3.5582  0.3259  0.1726
   47DOPC  C210 6413   2.112   3.086   4.354 -0.0501  0.5226 -0.0905
   47DOPC  H10R 6414   2.058   3.002   4.307 -0.2712 -0.1154  1.2465
   47DOPC  C211 6415   2.110   3.220   4.292 -0.2185 -0.7998 -0.4587
   47DOPC  H11R 6416   2.210   3.268   4.283 -0.8921  0.3472 -2.5852
   47DOPC  H11S 6417   2.050   3.288   4.356 -2.8702 -4.6207  1.4267
   47DOPC  C212 6418   2.049   3.217   4.149  0.2710 -0.3988 -0.0905
   47DOPC  H12R 6419   1.952   3.163   4.157  1.0405 -1.5889  1.9649
   47DOPC  H12S 6420   2.117   3.166   4.078  0.5993 -0.3171  0.1630
   47DOPC  C213 6421   2.016   3.362   4.098 -0.0790 -0.2235 -0.3364
   47DOPC  H13R 6422   1.950   3.415   4.169  2.1201 -0.4874  2.0663
   47DOPC  H13S 6423   1.957   3.347   4.005 -0.5663 -2.9167  0.3089
   47DOPC  C214 6424   2.141   3.441   4.070 -0.4274  0.8184 -0.0097
   47DOPC  H14R 6425   2.219   3.386   4.015 -0.5264 -1.7018  2.1569
   47DOPC  H14S 6426   2.189   3.471   4.166  0.5142 -2.7232  0.7419
   47DOPC  C215 6427   2.110   3.565   3.983 -0.0535 -0.2933  0.2272
   47DOPC  H15R 6428   2.016   3.614   4.016  0.8370  1.9683 -0.3919
   47DOPC  H15S 6429   2.095   3.529   3.879  1.5651 -1.1650  0.2676
   47DOPC  C216 6430   2.229   3.664   3.969  0.3576  0.1096  0.0010
   47DOPC  H16R 6431   2.229   3.718   3.872 -1.6876 -0.0825 -0.1529
   47DOPC  H16S 6432   2.316   3.596   3.965 -0.6980 -1.2496 -1.2776
   47DOPC  C217 6433   2.244   3.761   4.087  0.8801  0.1989 -0.3327
   47DOPC  H17R 6434   2.234   3.701   4.180  0.1253 -1.3382 -1.3465
   47DOPC  H17S 6435   2.169   3.843   4.089 -0.1521 -0.6022 -2.5126
   47DOPC  C218 6436   2.379   3.834   4.086 -0.7106  0.4136  0.3458
   47DOPC  H18R 6437   2.401   3.881   4.184  1.2509 -0.9647  0.6205
   47DOPC  H18S 6438   2.378   3.920   4.015 -1.0268  0.7129  0.7104
   47DOPC  H18T 6439   2.463   3.767   4.058 -1.1716 -0.5429  1.2119
   47DOPC   C33 6440   2.707   2.748   4.731  0.5583 -0.2627 -0.4108
   47DOPC   H3X 6441   2.645   2.690   4.659 -0.5395  1.4290 -0.8677
   47DOPC   H3Y 6442   2.808   2.773   4.693  0.8022  1.5378  1.2594
   47DOPC   C34 6443   2.640   2.881   4.752 -0.3654 -0.0882  0.2675
   47DOPC   H4X 6444   2.694   2.956   4.813 -0.9520  0.3228  0.2936
   47DOPC   H4Y 6445   2.552   2.868   4.818 -0.2988  0.5665  0.4882
   47DOPC   C35 6446   2.584   2.942   4.627 -0.9123 -0.5487  0.1073
   47DOPC   H5X 6447   2.523   3.032   4.647 -2.4339 -1.3615 -0.6629
   47DOPC   H5Y 6448   2.509   2.874   4.581 -1.3353  0.0944 -0.1717
   47DOPC   C36 6449   2.699   2.957   4.531 -0.5583 -0.5396 -0.0799
   47DOPC   H6X 6450   2.787   2.986   4.592 -1.0072  1.7217 -0.4192
   47DOPC   H6Y 6451   2.714   2.862   4.475 -0.3204 -1.1470  0.9931
   47DOPC   C37 6452   2.680   3.073   4.436 -0.2195 -1.2067  0.0170
   47DOPC   H7X 6453   2.582   3.061   4.384  0.0392 -2.5178 -0.1994
   47DOPC   H7Y 6454   2.671   3.170   4.489 -1.9550  0.6250 -3.2611
   47DOPC   C38 6455   2.801   3.085   4.344  0.1601 -0.2160 -0.2249
   47DOPC   H8X 6456   2.888   3.102   4.410 -0.0712 -1.7211  0.5035
   47DOPC   H8Y 6457   2.804   3.183   4.291  1.7256  0.0107  0.2232
   47DOPC   C39 6458   2.817   2.975   4.244 -0.2660 -0.2172  0.1243
   47DOPC   H9X 6459   2.738   2.945   4.174  0.4492 -0.5189 -0.5692
   47DOPC  C310 6460   2.933   2.901   4.233  1.2322 -0.9973  0.2050
   47DOPC  H10X 6461   2.933   2.817   4.162 -1.5517 -0.5873 -0.3788
   47DOPC  C311 6462   3.062   2.934   4.306 -0.0533 -0.6744  0.1012
   47DOPC  H11X 6463   3.092   2.857   4.380 -0.0284 -0.6773  0.0879
   47DOPC  H11Y 6464   3.047   3.024   4.369  0.0661  0.0991 -0.9460
   47DOPC  C312 6465   3.173   2.974   4.212  0.3418 -0.1704 -0.4050
   47DOPC  H12X 6466   3.239   3.045   4.267 -0.9832  0.2381  0.6917
   47DOPC  H12Y 6467   3.122   3.028   4.129 -0.1145  0.7021  0.4226
   47DOPC  C313 6468   3.259   2.858   4.152 -0.4353 -0.0417  0.2989
   47DOPC  H13X 6469   3.300   2.812   4.244  0.6334  1.3616  0.5670
   47DOPC  H13Y 6470   3.198   2.786   4.093  0.9292 -0.7875 -0.2798
   47DOPC  C314 6471   3.380   2.909   4.067  0.0718 -0.4757 -0.5624
   47DOPC  H14X 6472   3.356   2.928   3.960 -2.0403  1.9083  0.2455
   47DOPC  H14Y 6473   3.401   3.011   4.106 -0.4786 -0.2738 -0.7856
   47DOPC  C315 6474   3.497   2.813   4.090 -0.1872 -0.8404  0.3754
   47DOPC  H15X 6475   3.486   2.713   4.042  1.4848  0.1287 -2.2528
   47DOPC  H15Y 6476   3.515   2.801   4.199  0.3928 -1.6767  0.1994
   47DOPC  C316 6477   3.630   2.864   4.021 -0.2814  0.6684 -0.1118
   47DOPC  H16X 6478   3.613   2.876   3.912  0.5396 -0.3154 -0.3590
   47DOPC  H16Y 6479   3.667   2.959   4.066 -2.4626  0.8835  1.3548
   47DOPC  C317 6480   3.745   2.759   4.036  0.5132 -0.0481 -0.0593
   47DOPC  H17X 6481   3.726   2.672   3.969  0.2091 -1.0877  1.3155
   47DOPC  H17Y 6482   3.839   2.806   4.001  0.1580  1.7240  1.2696
   47DOPC  C318 6483   3.763   2.712   4.179 -0.4685  0.0748  0.3071
   47DOPC  H18X 6484   3.679   2.653   4.222  0.3309 -0.8119  0.6786
   47DOPC  H18Y 6485   3.847   2.642   4.193 -1.3358 -0.7442  1.7768
   47DOPC  H18Z 6486   3.774   2.796   4.251 -0.5542 -0.3534  0.8267
   48DOPC     N 6487   1.582   1.797   5.683 -0.7423  0.7206 -0.2349
   48DOPC   C12 6488   1.456   1.863   5.631 -0.4512  0.2478 -0.8597
   48DOPC  H12A 6489   1.484   1.967   5.638  2.2581 -0.4919  1.0432
   48DOPC  H12B 6490   1.375   1.834   5.696  0.5853  0.2548  0.4923
   48DOPC   C13 6491   1.594   1.804   5.832  0.6231  0.3408  0.0350
   48DOPC  H13A 6492   1.682   1.756   5.872  1.2411  0.5287 -1.0710
   48DOPC  H13B 6493   1.596   1.909   5.856  1.5228  0.5371 -0.8520
   48DOPC  H13C 6494   1.508   1.764   5.884  0.3204  0.7590 -0.1375
   48DOPC   C14 6495   1.706   1.861   5.624 -0.9552 -0.0653 -0.1354
   48DOPC  H14A 6496   1.785   1.790   5.608 -0.9254 -0.3132  1.0197
   48DOPC  H14B 6497   1.681   1.898   5.526 -2.5630  1.0839  0.6440
   48DOPC  H14C 6498   1.742   1.950   5.674 -1.3817 -0.5102  1.0062
   48DOPC   C15 6499   1.585   1.651   5.647  0.5760 -0.2158  0.8149
   48DOPC  H15A 6500   1.649   1.585   5.703 -1.6944 -3.4576 -0.0858
   48DOPC  H15B 6501   1.616   1.642   5.544 -1.4794 -0.3842  0.1583
   48DOPC  H15C 6502   1.488   1.604   5.652 -0.7657  1.6653 -2.8962
   48DOPC   C11 6503   1.428   1.815   5.495 -0.8116 -0.7728  0.5340
   48DOPC  H11A 6504   1.413   1.706   5.480  1.4695 -1.0119 -0.3960
   48DOPC  H11B 6505   1.329   1.856   5.463 -0.0182 -0.9286 -2.4970
   48DOPC     P 6506   1.538   2.003   5.343 -0.2125 -0.0872  0.2591
   48DOPC   O13 6507   1.631   1.992   5.235 -0.1914  0.5000 -0.4256
   48DOPC   O14 6508   1.569   2.110   5.443 -0.0136 -0.3752 -0.0478
   48DOPC   O12 6509   1.532   1.859   5.404  0.4458 -0.1784 -0.5448
   48DOPC   O11 6510   1.395   2.031   5.285 -0.3943 -0.0309 -0.1727
   48DOPC    C1 6511   1.327   1.937   5.206  0.5408  0.7194  0.1703
   48DOPC    HA 6512   1.287   1.850   5.262 -1.2935  0.8639 -0.8470
   48DOPC    HB 6513   1.397   1.893   5.132  0.8780  0.4600  0.6341
   48DOPC    C2 6514   1.210   2.010   5.133 -0.7107 -0.2999 -0.9734
   48DOPC    HS 6515   1.162   1.943   5.059 -0.2181 -0.6257 -1.0033
   48DOPC   O21 6516   1.253   2.135   5.083  0.2845 -0.1935  0.1015
   48DOPC   C21 6517   1.343   2.145   4.989  0.4710 -0.5896 -0.1511
   48DOPC   O22 6518   1.401   2.060   4.927 -0.3448  0.0358 -0.1199
   48DOPC   C22 6519   1.377   2.293   4.974  1.0392 -0.1710 -0.5279
   48DOPC   H2R 6520   1.387   2.342   5.073 -0.4906 -1.7133  0.4521
   48DOPC   H2S 6521   1.287   2.338   4.928  0.9319 -0.7326 -0.8798
   48DOPC    C3 6522   1.105   2.039   5.238  0.0682 -0.5085 -0.6070
   48DOPC    HX 6523   1.155   2.093   5.321  1.3274  0.1667 -1.7709
   48DOPC    HY 6524   1.070   1.942   5.280  0.0104 -0.3234 -0.2227
   48DOPC   O31 6525   0.983   2.111   5.206 -0.0199  0.1855  0.6357
   48DOPC   C31 6526   0.980   2.245   5.224 -0.2509  0.0969 -0.4463
   48DOPC   O32 6527   1.071   2.313   5.262  0.2654  0.0857  0.9648
   48DOPC   C32 6528   0.834   2.284   5.219  0.2308 -0.0985 -0.1706
   48DOPC   H2X 6529   0.764   2.218   5.275  0.3956  0.5212  0.7846
   48DOPC   H2Y 6530   0.819   2.391   5.243 -0.3697 -0.1949 -0.0896
   48DOPC   C23 6531   1.489   2.336   4.879  0.2067  0.7197 -0.5825
   48DOPC   H3R 6532   1.477   2.440   4.843  0.7521  0.6158 -1.0815
   48DOPC   H3S 6533   1.481   2.283   4.782 -0.9895  1.5355 -0.9500
   48DOPC   C24 6534   1.625   2.324   4.952 -0.2890  1.0937  0.3106
   48DOPC   H4R 6535   1.615   2.237   5.020 -0.7007  2.4029  2.0013
   48DOPC   H4S 6536   1.640   2.413   5.017  0.3557 -0.2043  2.0164
   48DOPC   C25 6537   1.751   2.309   4.853  0.4378  0.3370 -0.3088
   48DOPC   H5R 6538   1.723   2.214   4.801  0.2323  0.0744  0.2738
   48DOPC   H5S 6539   1.839   2.297   4.919  0.5881 -4.0030 -0.9917
   48DOPC   C26 6540   1.773   2.410   4.744  0.3918 -0.3811  0.5534
   48DOPC   H6R 6541   1.792   2.509   4.790  2.2965 -0.1011 -0.7371
   48DOPC   H6S 6542   1.680   2.426   4.684 -0.3291 -1.0840  1.4405
   48DOPC   C27 6543   1.889   2.362   4.655  0.1738 -0.1995 -0.3494
   48DOPC   H7R 6544   1.851   2.268   4.610 -2.0719  0.7776 -0.6179
   48DOPC   H7S 6545   1.975   2.330   4.717  0.0487 -1.5854 -0.8720
   48DOPC   C28 6546   1.917   2.465   4.549 -0.8471  0.0551 -0.4324
   48DOPC   H8R 6547   1.911   2.566   4.595  0.3815 -0.5717  1.1628
   48DOPC   H8S 6548   1.846   2.465   4.463 -1.2796 -0.2993 -0.0742
   48DOPC   C29 6549   2.053   2.438   4.486 -0.3102 -0.1109  0.2585
   48DOPC   H9R 6550   2.057   2.334   4.450 -0.4005  0.0446 -0.2024
   48DOPC  C210 6551   2.151   2.526   4.457 -0.5343 -0.4612 -0.3381
   48DOPC  H10R 6552   2.237   2.489   4.400 -2.3923 -1.8990 -2.4075
   48DOPC  C211 6553   2.148   2.672   4.481  0.2998 -0.6238 -0.0438
   48DOPC  H11R 6554   2.044   2.696   4.511  0.2142 -2.3955  1.2658
   48DOPC  H11S 6555   2.183   2.733   4.395 -2.0957 -0.4357 -0.9413
   48DOPC  C212 6556   2.244   2.701   4.604 -0.3669  0.4925  0.6364
   48DOPC  H12R 6557   2.269   2.809   4.596 -2.2461  0.8932 -0.4457
   48DOPC  H12S 6558   2.339   2.646   4.587 -0.2069  0.9438 -0.0020
   48DOPC  C213 6559   2.184   2.654   4.738 -0.3497 -0.0985 -0.0154
   48DOPC  H13R 6560   2.200   2.544   4.742 -0.0295 -0.0471  0.1788
   48DOPC  H13S 6561   2.078   2.681   4.722 -0.6909 -1.4300 -0.1292
   48DOPC  C214 6562   2.244   2.730   4.852 -0.1026 -0.7883  0.4158
   48DOPC  H14R 6563   2.197   2.830   4.867  2.4605  0.6546 -0.5299
   48DOPC  H14S 6564   2.346   2.758   4.816 -0.7067  0.1611 -0.6522
   48DOPC  C215 6565   2.250   2.660   4.982  0.1096  0.4247 -0.0793
   48DOPC  H15R 6566   2.297   2.560   4.966  1.4361  1.0352 -0.1611
   48DOPC  H15S 6567   2.148   2.647   5.022  1.3372  0.4708  3.3544
   48DOPC  C216 6568   2.326   2.746   5.081  0.0031  0.4316 -0.3725
   48DOPC  H16R 6569   2.429   2.765   5.044 -0.4654  0.8211 -1.5354
   48DOPC  H16S 6570   2.325   2.684   5.173 -3.3082 -1.4177 -1.4798
   48DOPC  C217 6571   2.265   2.882   5.124 -0.1225  0.2021  0.6051
   48DOPC  H17R 6572   2.240   2.940   5.032  1.0084  0.1239  0.2377
   48DOPC  H17S 6573   2.355   2.930   5.167 -0.7362  1.2046  0.8117
   48DOPC  C218 6574   2.147   2.882   5.228 -0.6709 -0.4529  0.5858
   48DOPC  H18R 6575   2.189   2.834   5.318 -0.2572  0.0045  0.6436
   48DOPC  H18S 6576   2.061   2.820   5.193 -0.1389  0.2019 -2.1865
   48DOPC  H18T 6577   2.115   2.985   5.255 -2.2244 -1.1143  1.3863
   48DOPC   C33 6578   0.782   2.309   5.068 -1.3329  0.6701 -0.7408
   48DOPC   H3X 6579   0.869   2.358   5.021  1.1471 -4.0104 -1.7021
   48DOPC   H3Y 6580   0.686   2.364   5.060 -1.6151  0.3917  0.5644
   48DOPC   C34 6581   0.756   2.177   4.987  0.4170 -0.2102  0.2924
   48DOPC   H4X 6582   0.849   2.117   4.991  2.2318  2.5016  1.8197
   48DOPC   H4Y 6583   0.733   2.198   4.880  2.8720 -0.5295 -0.3447
   48DOPC   C35 6584   0.635   2.086   5.046  0.4475  0.0852 -0.7080
   48DOPC   H5X 6585   0.547   2.153   5.060 -0.8213 -1.4899 -0.8921
   48DOPC   H5Y 6586   0.674   2.066   5.148 -3.4244  2.5466  1.5030
   48DOPC   C36 6587   0.606   1.961   4.974  0.5813  0.7853 -0.2568
   48DOPC   H6X 6588   0.690   1.889   4.970  0.1591  0.1608  1.3750
   48DOPC   H6Y 6589   0.526   1.911   5.032  1.0234 -0.2637 -0.5402
   48DOPC   C37 6590   0.529   1.977   4.841 -0.1877  0.2272  0.2482
   48DOPC   H7X 6591   0.457   2.059   4.862 -0.2874  0.4792 -0.9817
   48DOPC   H7Y 6592   0.601   2.019   4.768  0.1924 -1.0595 -0.1393
   48DOPC   C38 6593   0.479   1.846   4.785  0.2212 -0.0155 -0.3587
   48DOPC   H8X 6594   0.459   1.767   4.861 -0.4090  0.1934 -0.3027
   48DOPC   H8Y 6595   0.555   1.813   4.712 -1.1667 -0.2538 -1.7653
   48DOPC   C39 6596   0.345   1.879   4.722 -0.8836 -0.8098  0.0138
   48DOPC   H9X 6597   0.270   1.923   4.789 -3.0583 -1.6354 -1.7645
   48DOPC  C310 6598   0.311   1.848   4.591  0.6693  0.3275  0.8213
   48DOPC  H10X 6599   0.210   1.877   4.561  0.5274 -0.1205  0.8597
   48DOPC  C311 6600   0.392   1.780   4.482 -0.2478 -0.7425 -0.5597
   48DOPC  H11X 6601   0.491   1.750   4.521 -1.3321 -2.4941  1.0118
   48DOPC  H11Y 6602   0.425   1.847   4.399  0.8591 -1.5258 -0.7722
   48DOPC  C312 6603   0.336   1.655   4.424 -0.6628 -0.5172  0.1231
   48DOPC  H12X 6604   0.228   1.671   4.403 -0.0935  1.6193 -1.5408
   48DOPC  H12Y 6605   0.338   1.576   4.502  2.6841 -0.9932 -0.2751
   48DOPC  C313 6606   0.416   1.609   4.298 -0.4754 -0.5489 -0.0465
   48DOPC  H13X 6607   0.422   1.692   4.225 -0.3245 -1.5731 -1.2438
   48DOPC  H13Y 6608   0.516   1.573   4.330 -1.2229 -0.8943  2.1335
   48DOPC  C314 6609   0.350   1.491   4.233  0.1867  0.1929 -0.2805
   48DOPC  H14X 6610   0.396   1.401   4.280  0.3944  0.2942 -0.2910
   48DOPC  H14Y 6611   0.241   1.490   4.252  0.5300  1.3523  2.1077
   48DOPC  C315 6612   0.377   1.473   4.079  0.0491 -0.1870 -0.2116
   48DOPC  H15X 6613   0.377   1.364   4.059 -0.6475 -0.0218 -1.2329
   48DOPC  H15Y 6614   0.482   1.507   4.072 -0.1692  1.3169  2.2938
   48DOPC  C316 6615   0.290   1.544   3.975 -1.0449  0.0427  0.2228
   48DOPC  H16X 6616   0.184   1.517   3.995 -0.3708 -1.4977  2.0032
   48DOPC  H16Y 6617   0.298   1.654   3.989  1.4696 -0.0733  0.1992
   48DOPC  C317 6618   0.340   1.509   3.831 -0.0948  0.8753  0.2887
   48DOPC  H17X 6619   0.450   1.515   3.815  0.1663 -0.9229  1.1419
   48DOPC  H17Y 6620   0.314   1.402   3.814  0.0000  0.7256  1.0587
   48DOPC  C318 6621   0.275   1.591   3.725  0.6329 -0.9823 -0.4809
   48DOPC  H18X 6622   0.294   1.548   3.624 -2.3828 -1.8694 -0.7612
   48DOPC  H18Y 6623   0.167   1.612   3.739  0.8666  0.2687 -0.3906
   48DOPC  H18Z 6624   0.316   1.694   3.728  1.3876 -1.3049  1.7098
   49DOPC     N 6625   1.877   3.599   5.944  0.1394 -0.4396 -0.9151
   49DOPC   C12 6626   1.927   3.715   6.033  0.4752 -0.6038 -0.6402
   49DOPC  H12A 6627   1.891   3.701   6.134 -2.7049  0.0367 -1.5717
   49DOPC  H12B 6628   1.888   3.812   6.006 -0.8060 -0.2973  2.0188
   49DOPC   C13 6629   1.898   3.462   5.995 -0.1647 -0.4571 -0.0347
   49DOPC  H13A 6630   1.856   3.445   6.093  1.8489  1.1153  1.1848
   49DOPC  H13B 6631   1.837   3.399   5.932 -0.4997 -0.2820  0.1093
   49DOPC  H13C 6632   2.003   3.437   5.993  0.1531  0.2392 -5.1059
   49DOPC   C14 6633   1.948   3.605   5.810  0.2621  0.9961 -0.0629
   49DOPC  H14A 6634   1.918   3.523   5.746 -0.4473  1.1379  0.0788
   49DOPC  H14B 6635   1.929   3.697   5.756  1.5232  0.9235 -0.6528
   49DOPC  H14C 6636   2.053   3.584   5.821  0.0177 -1.3168 -1.5264
   49DOPC   C15 6637   1.735   3.621   5.933 -0.3868 -0.1669 -0.1123
   49DOPC  H15A 6638   1.691   3.553   5.861  0.6799 -1.1714  0.1544
   49DOPC  H15B 6639   1.722   3.726   5.913  3.4656  0.6358  0.6891
   49DOPC  H15C 6640   1.694   3.591   6.028  1.5026 -1.3439  0.3951
   49DOPC   C11 6641   2.076   3.721   6.063 -0.8598  0.9872 -0.4145
   49DOPC  H11A 6642   2.094   3.776   6.158 -0.1086  2.5950 -1.4398
   49DOPC  H11B 6643   2.113   3.623   6.097 -2.3226  0.4077 -0.4075
   49DOPC     P 6644   2.189   3.928   5.961  0.1994 -0.0594  0.0357
   49DOPC   O13 6645   2.255   3.941   6.092 -0.0430 -0.9558  0.3588
   49DOPC   O14 6646   2.076   4.019   5.919  0.0295  0.7471 -0.2638
   49DOPC   O12 6647   2.150   3.769   5.959 -0.0157  0.4137  0.8506
   49DOPC   O11 6648   2.307   3.952   5.854 -0.7532  0.0941 -0.2863
   49DOPC    C1 6649   2.258   3.924   5.725 -1.1351  1.3118  0.0671
   49DOPC    HA 6650   2.282   4.014   5.665 -0.5141 -0.0243 -1.8121
   49DOPC    HB 6651   2.152   3.895   5.710 -0.9288  0.8238 -0.5040
   49DOPC    C2 6652   2.334   3.809   5.664 -0.0145  0.2383  0.5742
   49DOPC    HS 6653   2.339   3.732   5.744 -0.5825 -0.4528 -0.0392
   49DOPC   O21 6654   2.457   3.861   5.623 -0.4390  0.3979  0.2738
   49DOPC   C21 6655   2.546   3.756   5.604 -1.0029 -0.3579 -0.6251
   49DOPC   O22 6656   2.521   3.638   5.612 -0.5219 -0.6301 -0.8595
   49DOPC   C22 6657   2.684   3.812   5.560  0.6900  0.0158  0.6567
   49DOPC   H2R 6658   2.748   3.832   5.649  2.0200 -2.9418  0.4777
   49DOPC   H2S 6659   2.674   3.905   5.500 -0.6361 -0.3580  0.2577
   49DOPC    C3 6660   2.249   3.742   5.546  0.3178  0.4946 -0.2302
   49DOPC    HX 6661   2.178   3.675   5.598  0.4673 -0.0193 -0.6787
   49DOPC    HY 6662   2.311   3.668   5.490  0.6641 -3.6227  4.7565
   49DOPC   O31 6663   2.192   3.845   5.459  0.0650  0.0523  0.1258
   49DOPC   C31 6664   2.062   3.835   5.431 -0.2833 -0.6820 -0.7082
   49DOPC   O32 6665   1.985   3.763   5.485 -0.2915  0.1240 -0.2665
   49DOPC   C32 6666   2.028   3.938   5.320 -0.0758  0.0944 -0.7813
   49DOPC   H2X 6667   2.049   4.034   5.373  1.9420 -0.5535 -0.3123
   49DOPC   H2Y 6668   2.106   3.923   5.242  0.5550  0.3058 -0.1986
   49DOPC   C23 6669   2.758   3.710   5.471  0.5574  0.1083  0.4144
   49DOPC   H3R 6670   2.706   3.675   5.379 -1.4410 -0.6995  1.8022
   49DOPC   H3S 6671   2.781   3.619   5.531 -0.6095 -1.4340 -1.3762
   49DOPC   C24 6672   2.890   3.774   5.405  0.3561  0.2944 -0.5002
   49DOPC   H4R 6673   2.968   3.794   5.482  0.1161 -2.7272  0.6578
   49DOPC   H4S 6674   2.859   3.873   5.365 -2.1340 -0.9431 -1.8991
   49DOPC   C25 6675   2.956   3.674   5.313  0.4531 -0.6167  0.4976
   49DOPC   H5R 6676   2.898   3.657   5.220  0.7064 -1.2180  0.4413
   49DOPC   H5S 6677   2.934   3.579   5.365 -1.8533 -0.6852 -0.5048
   49DOPC   C26 6678   3.104   3.703   5.288  0.2864 -0.3211  0.2324
   49DOPC   H6R 6679   3.137   3.609   5.239 -3.0844  0.3017 -3.8265
   49DOPC   H6S 6680   3.154   3.709   5.387 -1.4480  0.3807  1.0996
   49DOPC   C27 6681   3.134   3.827   5.199  0.2687  0.1206  0.0216
   49DOPC   H7R 6682   3.107   3.926   5.243 -1.6492 -0.2345 -0.2625
   49DOPC   H7S 6683   3.064   3.816   5.114  1.5323  1.0963 -1.1854
   49DOPC   C28 6684   3.271   3.829   5.142  0.1174 -0.1180 -0.0461
   49DOPC   H8R 6685   3.285   3.916   5.073 -0.1019  0.7996  1.0455
   49DOPC   H8S 6686   3.299   3.740   5.081 -0.6881 -0.2409 -0.2474
   49DOPC   C29 6687   3.364   3.847   5.260  0.1510 -0.0247 -0.2616
   49DOPC   H9R 6688   3.386   3.759   5.321 -0.2494 -1.2120 -1.7520
   49DOPC  C210 6689   3.433   3.955   5.289 -0.2687  0.1281 -0.2337
   49DOPC  H10R 6690   3.510   3.951   5.367  1.1800 -0.8716 -1.6705
   49DOPC  C211 6691   3.445   4.081   5.205  0.2272  0.1137 -0.0254
   49DOPC  H11R 6692   3.427   4.151   5.289 -0.3656 -1.3764  1.1426
   49DOPC  H11S 6693   3.351   4.085   5.145  0.0310  2.4320  0.3480
   49DOPC  C212 6694   3.573   4.093   5.119  0.7201 -0.0485 -0.1334
   49DOPC  H12R 6695   3.661   4.060   5.179  2.5655 -0.0323 -2.6952
   49DOPC  H12S 6696   3.591   4.201   5.098  0.1374 -0.0139 -0.4578
   49DOPC  C213 6697   3.579   4.000   4.995 -0.0853  0.4899  0.3374
   49DOPC  H13R 6698   3.497   4.014   4.922 -0.4385 -0.9822  0.4372
   49DOPC  H13S 6699   3.562   3.896   5.028 -0.3869  0.3423 -0.2691
   49DOPC  C214 6700   3.720   4.014   4.933 -0.1935 -0.4408 -0.8236
   49DOPC  H14R 6701   3.795   3.990   5.011  2.2954  1.3565 -2.4951
   49DOPC  H14S 6702   3.720   4.122   4.907  0.1270 -0.3809 -0.5847
   49DOPC  C215 6703   3.736   3.926   4.806 -0.0106  0.1068  0.6946
   49DOPC  H15R 6704   3.693   3.985   4.722  1.9627  2.1540  1.0095
   49DOPC  H15S 6705   3.677   3.835   4.826  1.6226 -0.9195  1.0917
   49DOPC  C216 6706   3.883   3.873   4.776 -0.7003  0.4758  0.2167
   49DOPC  H16R 6707   3.925   3.838   4.872  1.3551  0.9105 -0.4848
   49DOPC  H16S 6708   3.939   3.961   4.740 -1.2506  0.8155  0.1729
   49DOPC  C217 6709   3.886   3.759   4.669 -0.1711 -0.1126  0.0588
   49DOPC  H17R 6710   3.818   3.778   4.583 -0.5920 -1.0088  0.1814
   49DOPC  H17S 6711   3.853   3.670   4.727  0.4876 -1.1688 -1.1505
   49DOPC  C218 6712   4.029   3.737   4.605 -0.5165 -0.0717 -0.3423
   49DOPC  H18R 6713   4.111   3.762   4.675 -0.8926  0.8010 -0.1945
   49DOPC  H18S 6714   4.059   3.803   4.520 -1.1602  1.9681  0.9347
   49DOPC  H18T 6715   4.048   3.631   4.578 -1.3240  0.0118 -1.3451
   49DOPC   C33 6716   1.881   3.939   5.270 -0.0169  0.0042  0.2018
   49DOPC   H3X 6717   1.826   3.956   5.365  0.0446  0.2805  0.1873
   49DOPC   H3Y 6718   1.868   3.839   5.223 -0.6646 -0.5262  1.4729
   49DOPC   C34 6719   1.857   4.047   5.164  0.1950 -0.2872 -0.4653
   49DOPC   H4X 6720   1.908   4.141   5.195  0.0647  0.9053 -3.5650
   49DOPC   H4Y 6721   1.751   4.075   5.150 -0.0817  0.0779  1.9102
   49DOPC   C35 6722   1.926   4.000   5.036 -0.4317  0.0148  0.1023
   49DOPC   H5X 6723   1.884   3.904   5.002 -0.5854  0.4383 -0.9440
   49DOPC   H5Y 6724   2.036   3.994   5.051 -0.4413 -0.5965 -0.0792
   49DOPC   C36 6725   1.898   4.095   4.914 -0.9168 -0.3590 -0.3445
   49DOPC   H6X 6726   1.788   4.087   4.905 -0.6661 -2.8184 -3.0784
   49DOPC   H6Y 6727   1.935   4.197   4.936  2.1186 -0.6557 -3.1653
   49DOPC   C37 6728   1.943   4.053   4.775  0.2427 -0.2620  0.1550
   49DOPC   H7X 6729   1.911   3.950   4.751  0.5745 -0.1587 -0.8004
   49DOPC   H7Y 6730   1.894   4.122   4.703  0.5309 -0.1784  0.0351
   49DOPC   C38 6731   2.096   4.064   4.746  0.0086 -0.0222  0.6526
   49DOPC   H8X 6732   2.155   4.012   4.824  0.7730  2.0568  1.5063
   49DOPC   H8Y 6733   2.116   4.173   4.740  0.8448 -0.0327  2.5459
   49DOPC   C39 6734   2.112   4.007   4.603 -0.1163  1.3517 -0.4446
   49DOPC   H9X 6735   2.025   4.018   4.536 -2.0732 -1.5990  1.3785
   49DOPC  C310 6736   2.219   3.941   4.554 -0.6402  0.5735 -0.2019
   49DOPC  H10X 6737   2.228   3.913   4.448  1.1724 -1.2160  0.3840
   49DOPC  C311 6738   2.335   3.925   4.644 -0.4171  0.4634  0.0832
   49DOPC  H11X 6739   2.326   3.832   4.704 -1.7440  0.8623  0.5279
   49DOPC  H11Y 6740   2.341   4.015   4.708 -0.3482  0.7038 -0.2582
   49DOPC  C312 6741   2.462   3.908   4.549 -0.0071  0.0864 -0.5087
   49DOPC  H12X 6742   2.447   3.823   4.479 -1.8246  0.8224 -1.0904
   49DOPC  H12Y 6743   2.547   3.885   4.616 -1.1085  1.6549  1.5478
   49DOPC  C313 6744   2.486   4.028   4.461 -0.3199  0.3650  0.4775
   49DOPC  H13X 6745   2.414   4.031   4.376 -0.8822  0.1294  0.9345
   49DOPC  H13Y 6746   2.461   4.122   4.516  0.0513  0.6120  0.2207
   49DOPC  C314 6747   2.627   4.028   4.408 -1.0736  0.0096  0.4827
   49DOPC  H14X 6748   2.702   4.012   4.489 -1.6731  0.9360  1.2439
   49DOPC  H14Y 6749   2.642   3.958   4.323 -0.1123 -0.0750  0.7082
   49DOPC  C315 6750   2.674   4.166   4.357  0.4082  0.5401  0.0831
   49DOPC  H15X 6751   2.672   4.245   4.435 -0.6982  1.5819 -0.9430
   49DOPC  H15Y 6752   2.605   4.199   4.276  0.9591  0.0997 -0.5831
   49DOPC  C316 6753   2.815   4.139   4.303  0.3485 -0.6499 -0.2831
   49DOPC  H16X 6754   2.880   4.076   4.367  1.4468 -2.5588 -3.1033
   49DOPC  H16Y 6755   2.797   4.086   4.207 -1.2175  1.2680 -1.1213
   49DOPC  C317 6756   2.902   4.264   4.274  0.1679 -0.3160  0.5468
   49DOPC  H17X 6757   2.845   4.315   4.193  0.3918 -1.3182 -0.2632
   49DOPC  H17Y 6758   2.909   4.333   4.360  0.5210 -0.4780  0.6468
   49DOPC  C318 6759   3.043   4.230   4.225 -0.6948 -0.0066  0.3101
   49DOPC  H18X 6760   3.032   4.159   4.141  0.9673  0.9740 -0.8009
   49DOPC  H18Y 6761   3.091   4.324   4.190 -1.5001  0.9511  1.6800
   49DOPC  H18Z 6762   3.100   4.177   4.304 -1.2513 -0.3094  0.5101
   50DOPC     N 6763   3.856   5.658   5.998  0.5810  0.1847 -0.1312
   50DOPC   C12 6764   3.848   5.736   5.871 -0.6908  0.1868  0.4719
   50DOPC  H12A 6765   3.772   5.694   5.807  0.4387 -0.1989 -0.6469
   50DOPC  H12B 6766   3.946   5.736   5.827 -0.8066  0.2927  0.2085
   50DOPC   C13 6767   3.980   5.694   6.061  0.6831 -0.8148  0.8088
   50DOPC  H13A 6768   4.063   5.679   5.994 -1.2320  1.9172 -2.4630
   50DOPC  H13B 6769   3.971   5.798   6.088 -1.2011 -0.9864  0.9284
   50DOPC  H13C 6770   3.996   5.650   6.158  0.2205  2.2305  2.3853
   50DOPC   C14 6771   3.867   5.514   5.965  0.0872  0.2594  0.3311
   50DOPC  H14A 6772   3.966   5.492   5.928 -0.4035 -0.9867 -0.2955
   50DOPC  H14B 6773   3.844   5.454   6.052  0.4581  1.4301  1.2711
   50DOPC  H14C 6774   3.790   5.493   5.893  0.7158  2.7704 -1.1850
   50DOPC   C15 6775   3.745   5.689   6.096  0.5798 -0.0820  0.0988
   50DOPC  H15A 6776   3.733   5.795   6.113 -3.0419 -0.1753 -1.1286
   50DOPC  H15B 6777   3.758   5.637   6.189 -1.8499  0.3632  0.7529
   50DOPC  H15C 6778   3.651   5.657   6.055  0.5749 -0.5168  0.4494
   50DOPC   C11 6779   3.814   5.885   5.869  0.6397 -0.5118  0.5002
   50DOPC  H11A 6780   3.874   5.934   5.949  0.1771 -1.6431  1.5711
   50DOPC  H11B 6781   3.826   5.929   5.767 -0.2609 -2.7459 -0.6379
   50DOPC     P 6782   3.550   5.868   5.824  0.0300  0.1862 -0.2147
   50DOPC   O13 6783   3.468   5.984   5.773  0.3277 -0.2660  0.0672
   50DOPC   O14 6784   3.485   5.771   5.919  0.2768 -0.1075  0.0438
   50DOPC   O12 6785   3.677   5.920   5.900 -0.4589  0.3713 -0.0270
   50DOPC   O11 6786   3.605   5.785   5.697  0.3541 -0.5003  0.1028
   50DOPC    C1 6787   3.555   5.655   5.673 -0.6456 -0.4075 -0.0114
   50DOPC    HA 6788   3.444   5.660   5.661 -0.4410  2.3737 -1.6056
   50DOPC    HB 6789   3.587   5.602   5.765 -2.9578  1.0845  1.7911
   50DOPC    C2 6790   3.622   5.577   5.555 -0.6569  0.4038 -0.2115
   50DOPC    HS 6791   3.710   5.530   5.603 -0.4450 -0.5468 -1.4631
   50DOPC   O21 6792   3.646   5.653   5.443 -0.2477 -0.1180 -0.1465
   50DOPC   C21 6793   3.746   5.609   5.362  0.0804  0.3120  0.6143
   50DOPC   O22 6794   3.814   5.509   5.381  0.1111 -0.3256 -0.1968
   50DOPC   C22 6795   3.768   5.706   5.249  0.3363 -0.6988 -0.2707
   50DOPC   H2R 6796   3.851   5.774   5.278  0.3359 -0.7840 -0.0620
   50DOPC   H2S 6797   3.672   5.761   5.246  1.8664  2.2743  0.7196
   50DOPC    C3 6798   3.531   5.453   5.524 -0.3288  0.0695 -0.7224
   50DOPC    HX 6799   3.437   5.489   5.477  0.1265  1.1565 -0.8234
   50DOPC    HY 6800   3.509   5.412   5.625  1.3023  1.0434  0.0604
   50DOPC   O31 6801   3.603   5.361   5.437 -0.3609  0.0746 -0.0300
   50DOPC   C31 6802   3.678   5.274   5.492 -0.7329 -0.2316  0.4804
   50DOPC   O32 6803   3.704   5.266   5.611 -0.8629  0.7102  0.5257
   50DOPC   C32 6804   3.754   5.199   5.377 -0.4799 -0.2916 -0.7680
   50DOPC   H2X 6805   3.797   5.278   5.312  0.9231 -0.4403 -0.0507
   50DOPC   H2Y 6806   3.831   5.139   5.430 -0.6216 -1.9380 -2.3086
   50DOPC   C23 6807   3.790   5.634   5.111 -0.0777 -0.1345  0.7100
   50DOPC   H3R 6808   3.866   5.554   5.124 -0.3628 -0.4610  0.3787
   50DOPC   H3S 6809   3.834   5.703   5.037  0.2893 -0.9037  0.2026
   50DOPC   C24 6810   3.657   5.574   5.071 -0.4832  0.3065  0.4224
   50DOPC   H4R 6811   3.574   5.646   5.088 -0.1806 -0.0743  4.3329
   50DOPC   H4S 6812   3.632   5.477   5.120  0.5597 -0.8253 -1.1865
   50DOPC   C25 6813   3.666   5.527   4.925 -0.4834  0.3182  0.1704
   50DOPC   H5R 6814   3.757   5.467   4.902 -2.9606 -3.0075 -1.7681
   50DOPC   H5S 6815   3.672   5.619   4.863 -1.4580 -1.4374 -2.7514
   50DOPC   C26 6816   3.548   5.450   4.863 -0.2772  0.4417 -0.2060
   50DOPC   H6R 6817   3.455   5.511   4.852 -1.1128 -0.4189  1.5433
   50DOPC   H6S 6818   3.525   5.363   4.928 -2.0982  0.9465 -0.0951
   50DOPC   C27 6819   3.587   5.398   4.725  0.4643 -0.0206 -0.6446
   50DOPC   H7R 6820   3.672   5.331   4.752 -1.2384 -1.4764  1.4825
   50DOPC   H7S 6821   3.610   5.485   4.661 -2.1018  1.1522 -0.0956
   50DOPC   C28 6822   3.479   5.307   4.665 -0.3407 -0.1774 -0.4728
   50DOPC   H8R 6823   3.455   5.222   4.732  0.2451 -0.5672 -0.7540
   50DOPC   H8S 6824   3.529   5.261   4.577 -2.1373  2.4910 -3.1018
   50DOPC   C29 6825   3.349   5.369   4.626  0.8005 -0.0380  0.7138
   50DOPC   H9R 6826   3.350   5.437   4.540 -2.2251  1.5236  1.7493
   50DOPC  C210 6827   3.223   5.341   4.668 -0.4240 -0.5569 -0.4922
   50DOPC  H10R 6828   3.143   5.397   4.618 -0.5450 -1.4417 -1.3257
   50DOPC  C211 6829   3.192   5.255   4.789  0.3576 -0.1882  0.4452
   50DOPC  H11R 6830   3.100   5.303   4.828 -0.1546 -2.4761  2.2585
   50DOPC  H11S 6831   3.271   5.271   4.867  1.4091 -2.0899 -0.1591
   50DOPC  C212 6832   3.175   5.118   4.743 -0.3106  0.2118  0.0469
   50DOPC  H12R 6833   3.276   5.085   4.710 -0.5850 -0.3316 -0.2641
   50DOPC  H12S 6834   3.098   5.113   4.663 -2.5623  0.4075  2.0822
   50DOPC  C213 6835   3.119   5.031   4.853 -0.2090 -0.0431 -0.1676
   50DOPC  H13R 6836   3.024   5.081   4.881 -0.5220 -0.8379  0.2300
   50DOPC  H13S 6837   3.184   5.025   4.943 -2.6085  0.9387  1.7414
   50DOPC  C214 6838   3.076   4.892   4.804  0.1822  0.2362  0.1699
   50DOPC  H14R 6839   3.048   4.823   4.886  0.9376  0.0389  0.2705
   50DOPC  H14S 6840   3.160   4.842   4.752 -1.8006 -2.1964 -0.8785
   50DOPC  C215 6841   2.957   4.882   4.704 -0.3465 -0.2675 -0.4560
   50DOPC  H15R 6842   2.983   4.934   4.610 -2.1112  2.2084  0.3131
   50DOPC  H15S 6843   2.860   4.913   4.749 -0.3055 -1.1004  0.2284
   50DOPC  C216 6844   2.944   4.736   4.660 -0.3284  1.2865  1.5445
   50DOPC  H16R 6845   2.920   4.671   4.747  0.9705  0.3526  1.2354
   50DOPC  H16S 6846   3.039   4.692   4.624 -0.2726  0.6777  2.4081
   50DOPC  C217 6847   2.842   4.708   4.550  0.0922 -0.1019 -0.1784
   50DOPC  H17R 6848   2.769   4.792   4.556 -0.8431 -0.9331  0.4037
   50DOPC  H17S 6849   2.778   4.618   4.566 -1.0512  0.7653  0.3246
   50DOPC  C218 6850   2.912   4.694   4.412  0.2561  0.3545 -0.6186
   50DOPC  H18R 6851   3.000   4.761   4.414  0.2434  0.3570  0.1400
   50DOPC  H18S 6852   2.845   4.730   4.330 -0.0137 -0.0037 -0.5586
   50DOPC  H18T 6853   2.951   4.593   4.388 -2.6181 -0.4696 -2.4348
   50DOPC   C33 6854   3.657   5.113   5.287  0.6478  0.0114 -0.3744
   50DOPC   H3X 6855   3.564   5.172   5.274  1.1251  0.9539  0.3508
   50DOPC   H3Y 6856   3.631   5.016   5.336 -0.0200 -0.3332 -1.3909
   50DOPC   C34 6857   3.714   5.084   5.149  0.6997  0.2745 -0.5080
   50DOPC   H4X 6858   3.821   5.057   5.166  0.9774  1.6234  0.0507
   50DOPC   H4Y 6859   3.715   5.181   5.096  2.8967 -0.1899 -1.4260
   50DOPC   C35 6860   3.637   4.976   5.069  0.2582  0.0122 -0.3049
   50DOPC   H5X 6861   3.527   4.988   5.083  0.3731 -0.5402  1.2908
   50DOPC   H5Y 6862   3.660   4.875   5.109 -0.3829 -0.3870 -0.9249
   50DOPC   C36 6863   3.666   4.992   4.923  0.1808 -0.4047  0.2969
   50DOPC   H6X 6864   3.607   5.079   4.885 -2.1559 -1.8298  0.5198
   50DOPC   H6Y 6865   3.775   5.010   4.909  0.8307  0.1294  4.7667
   50DOPC   C37 6866   3.628   4.880   4.829 -0.1711 -0.0328  0.4052
   50DOPC   H7X 6867   3.658   4.915   4.728 -0.0321  0.1653  0.5143
   50DOPC   H7Y 6868   3.691   4.794   4.859  1.1072  1.2182  1.4669
   50DOPC   C38 6869   3.477   4.855   4.827  0.3167  0.2719 -0.2250
   50DOPC   H8X 6870   3.433   4.951   4.795  0.3530  0.6067  0.6912
   50DOPC   H8Y 6871   3.426   4.826   4.922 -0.6283  2.6013  0.0452
   50DOPC   C39 6872   3.456   4.748   4.722  0.2556  0.0298 -0.2886
   50DOPC   H9X 6873   3.466   4.648   4.767 -1.1044  0.7641  1.7668
   50DOPC  C310 6874   3.424   4.764   4.595 -0.0403  0.5814 -0.1519
   50DOPC  H10X 6875   3.408   4.671   4.539 -0.6348 -0.0329  1.0076
   50DOPC  C311 6876   3.405   4.887   4.521  0.7434  0.1624  0.2660
   50DOPC  H11X 6877   3.475   4.879   4.435  1.5707  1.7192  0.7559
   50DOPC  H11Y 6878   3.439   4.979   4.572 -0.1764  1.9831 -2.2210
   50DOPC  C312 6879   3.261   4.901   4.464 -0.7904  0.2459  0.5997
   50DOPC  H12X 6880   3.180   4.912   4.539 -2.2482  0.8330 -1.0017
   50DOPC  H12Y 6881   3.245   4.822   4.388  0.3348  0.0645  0.5261
   50DOPC  C313 6882   3.270   5.033   4.389 -0.6959  0.7385  0.4976
   50DOPC  H13X 6883   3.319   5.117   4.443  1.1940  1.5127 -2.2280
   50DOPC  H13Y 6884   3.342   5.025   4.306 -0.3306 -0.1888  0.8974
   50DOPC  C314 6885   3.138   5.068   4.338 -0.2111  0.3479  0.1900
   50DOPC  H14X 6886   3.099   4.973   4.295  1.1139 -0.5945  0.9998
   50DOPC  H14Y 6887   3.065   5.094   4.418  0.7870 -1.4584  1.7721
   50DOPC  C315 6888   3.146   5.183   4.239 -0.1464  0.0870  0.0501
   50DOPC  H15X 6889   3.050   5.169   4.185  0.2455 -2.5264 -0.0792
   50DOPC  H15Y 6890   3.227   5.164   4.165  0.0186  0.0234  0.2459
   50DOPC  C316 6891   3.164   5.313   4.312  0.7469  0.6158  0.6055
   50DOPC  H16X 6892   3.082   5.322   4.387  0.7588  4.0353  0.3791
   50DOPC  H16Y 6893   3.250   5.306   4.382 -0.3982 -0.6428  1.9766
   50DOPC  C317 6894   3.165   5.445   4.241  0.1844 -0.4861  0.5000
   50DOPC  H17X 6895   3.252   5.462   4.173 -1.2119 -1.2338 -1.5646
   50DOPC  H17Y 6896   3.075   5.445   4.177 -0.7781 -1.2720  1.8072
   50DOPC  C318 6897   3.156   5.558   4.342 -0.1514 -0.1228  0.2844
   50DOPC  H18X 6898   3.223   5.526   4.425  1.3770 -3.6234 -2.0405
   50DOPC  H18Y 6899   3.190   5.653   4.296 -0.4011 -1.0728 -2.0317
   50DOPC  H18Z 6900   3.052   5.577   4.374 -1.2413  1.1442 -3.5120
   51DOPC     N 6901   1.663   5.827   5.987  0.0880 -0.9238 -0.7507
   51DOPC   C12 6902   1.718   5.695   6.033 -0.3762  0.0797 -0.6365
   51DOPC  H12A 6903   1.648   5.651   6.103  2.0913 -1.2929  1.0966
   51DOPC  H12B 6904   1.798   5.708   6.104 -1.6603 -0.7345  1.0270
   51DOPC   C13 6905   1.767   5.892   5.900  0.6732 -0.3273 -0.1356
   51DOPC  H13A 6906   1.736   5.994   5.883  0.7111 -0.1667  0.7216
   51DOPC  H13B 6907   1.861   5.897   5.954 -0.8253  0.4928  2.6215
   51DOPC  H13C 6908   1.790   5.849   5.804  1.7292 -0.5846  0.2160
   51DOPC   C14 6909   1.637   5.911   6.111 -0.7104  0.6211 -0.2743
   51DOPC  H14A 6910   1.721   5.955   6.163  0.2550 -0.3652 -0.9420
   51DOPC  H14B 6911   1.571   5.991   6.080 -2.0518  0.8432  2.8471
   51DOPC  H14C 6912   1.577   5.853   6.179  0.4325 -2.5377 -1.7538
   51DOPC   C15 6913   1.534   5.813   5.917  0.4312  0.1471 -0.5153
   51DOPC  H15A 6914   1.483   5.907   5.909 -0.1045  0.2909  2.8854
   51DOPC  H15B 6915   1.470   5.739   5.961  0.4479  0.2019 -0.3991
   51DOPC  H15C 6916   1.558   5.779   5.817  1.2083 -2.8034  0.5470
   51DOPC   C11 6917   1.753   5.583   5.929 -0.6077  0.3096  0.1911
   51DOPC  H11A 6918   1.669   5.567   5.858 -0.3953  0.9669 -0.2120
   51DOPC  H11B 6919   1.840   5.617   5.868  1.1446 -0.2165  2.2616
   51DOPC     P 6920   1.697   5.378   6.080  0.5451  0.3665 -0.5694
   51DOPC   O13 6921   1.594   5.452   6.153 -0.2281  0.1167  0.2160
   51DOPC   O14 6922   1.780   5.281   6.155  0.1913 -0.4814 -0.2527
   51DOPC   O12 6923   1.797   5.470   6.002  0.0066  0.2287  0.0040
   51DOPC   O11 6924   1.611   5.287   5.978  0.1139 -0.1510 -0.5182
   51DOPC    C1 6925   1.681   5.239   5.860  0.3668 -0.9569 -0.1875
   51DOPC    HA 6926   1.704   5.132   5.878 -1.9920 -1.0615  3.2340
   51DOPC    HB 6927   1.782   5.283   5.846 -0.5399  2.5258  2.8468
   51DOPC    C2 6928   1.607   5.271   5.729 -0.4447 -0.4503  0.1871
   51DOPC    HS 6929   1.582   5.379   5.737 -0.6009 -0.6110  2.2664
   51DOPC   O21 6930   1.492   5.182   5.721  0.2396 -0.2396 -0.1007
   51DOPC   C21 6931   1.367   5.236   5.690  0.2142 -0.6128 -0.4385
   51DOPC   O22 6932   1.342   5.356   5.677  0.2559  0.2389  0.0946
   51DOPC   C22 6933   1.277   5.117   5.654  0.6103  0.8766  0.1271
   51DOPC   H2R 6934   1.171   5.152   5.656  0.1908 -0.3727  1.5478
   51DOPC   H2S 6935   1.283   5.044   5.738  0.3075  2.3052  1.4289
   51DOPC    C3 6936   1.711   5.263   5.603 -0.1923 -0.2115  0.2179
   51DOPC    HX 6937   1.757   5.162   5.613  1.7942  0.5961 -0.1160
   51DOPC    HY 6938   1.795   5.333   5.622  1.1018 -1.3807 -0.9138
   51DOPC   O31 6939   1.653   5.280   5.466 -0.8677  0.5236  0.0820
   51DOPC   C31 6940   1.628   5.406   5.432 -0.4730  0.2662 -0.3211
   51DOPC   O32 6941   1.648   5.505   5.504 -0.4699 -0.4813 -0.3644
   51DOPC   C32 6942   1.573   5.411   5.291 -0.6142 -0.3050 -0.5501
   51DOPC   H2X 6943   1.597   5.319   5.235 -1.9740 -0.7966 -0.3766
   51DOPC   H2Y 6944   1.463   5.411   5.309 -0.5500 -1.7951 -0.0568
   51DOPC   C23 6945   1.295   5.048   5.519 -0.8050  0.0650  0.1311
   51DOPC   H3R 6946   1.202   4.995   5.493 -1.3578  0.3023  1.5444
   51DOPC   H3S 6947   1.369   4.965   5.518 -0.4953  0.3372  0.0141
   51DOPC   C24 6948   1.309   5.148   5.402 -0.3333 -0.3078 -0.4829
   51DOPC   H4R 6949   1.404   5.204   5.409  0.0425 -1.0479  0.6303
   51DOPC   H4S 6950   1.221   5.216   5.408 -0.3002 -0.2674 -0.4644
   51DOPC   C25 6951   1.294   5.086   5.268 -0.0710 -0.0714 -0.6789
   51DOPC   H5R 6952   1.195   5.038   5.255 -0.8423  1.6244 -1.3973
   51DOPC   H5S 6953   1.385   5.024   5.253  1.6745  1.4807  2.4366
   51DOPC   C26 6954   1.291   5.197   5.163 -0.6033  0.7859 -0.3413
   51DOPC   H6R 6955   1.391   5.245   5.173 -0.3012  0.1165 -0.0736
   51DOPC   H6S 6956   1.220   5.277   5.194  1.3645  1.7374  2.0791
   51DOPC   C27 6957   1.271   5.134   5.026  0.5348 -0.1086  0.4530
   51DOPC   H7R 6958   1.164   5.105   5.032  0.6311 -1.0188 -1.4221
   51DOPC   H7S 6959   1.336   5.045   5.014 -1.0677 -1.1823 -0.6741
   51DOPC   C28 6960   1.288   5.228   4.905  0.3123  0.1424 -0.4786
   51DOPC   H8R 6961   1.247   5.328   4.933 -0.2113  1.1947 -4.4684
   51DOPC   H8S 6962   1.221   5.198   4.822 -0.6122 -1.3905  0.7571
   51DOPC   C29 6963   1.432   5.235   4.873 -0.3345 -0.1260  0.5467
   51DOPC   H9R 6964   1.503   5.279   4.945  0.6852  0.2496 -0.6296
   51DOPC  C210 6965   1.488   5.204   4.752  0.9424 -0.2309  0.2822
   51DOPC  H10R 6966   1.594   5.210   4.724  0.8117 -2.2012 -0.8961
   51DOPC  C211 6967   1.410   5.159   4.625 -0.3180 -0.5466 -0.2215
   51DOPC  H11R 6968   1.303   5.188   4.621 -1.1485 -3.2013  0.5118
   51DOPC  H11S 6969   1.416   5.048   4.615  0.1880 -0.4823 -0.6862
   51DOPC  C212 6970   1.470   5.209   4.495 -0.1410 -0.8193 -0.0513
   51DOPC  H12R 6971   1.559   5.144   4.478  0.5990  0.3010 -0.6485
   51DOPC  H12S 6972   1.507   5.314   4.502  1.7141 -1.4241 -0.1286
   51DOPC  C213 6973   1.372   5.181   4.375 -0.0359  0.3696 -0.3570
   51DOPC  H13R 6974   1.289   5.254   4.370 -0.7464 -0.4178 -0.2564
   51DOPC  H13S 6975   1.324   5.084   4.400 -0.6526  1.0521  1.2403
   51DOPC  C214 6976   1.437   5.189   4.239 -0.0068 -1.0009 -0.1927
   51DOPC  H14R 6977   1.542   5.154   4.238  1.1622  2.0633 -1.9533
   51DOPC  H14S 6978   1.451   5.299   4.223 -1.4385 -0.4577  1.9133
   51DOPC  C215 6979   1.361   5.124   4.130 -0.1046 -0.4999  0.9545
   51DOPC  H15R 6980   1.270   5.185   4.110  0.4160 -0.6517 -2.3190
   51DOPC  H15S 6981   1.336   5.018   4.148 -2.3743 -0.2051 -0.0552
   51DOPC  C216 6982   1.442   5.123   4.002  0.0734 -0.0736  0.0244
   51DOPC  H16R 6983   1.529   5.057   4.023 -0.8554 -0.7350  1.9301
   51DOPC  H16S 6984   1.488   5.221   3.976  0.4668 -0.6737 -1.7140
   51DOPC  C217 6985   1.374   5.071   3.870 -0.6040  0.4841 -0.0959
   51DOPC  H17R 6986   1.454   5.055   3.794 -0.6169 -1.4451  0.2385
   51DOPC  H17S 6987   1.301   5.150   3.843 -2.5723 -1.4613 -0.7924
   51DOPC  C218 6988   1.294   4.942   3.888 -0.1015 -0.9731  0.2542
   51DOPC  H18R 6989   1.209   4.954   3.959  0.9870  1.5487  1.2503
   51DOPC  H18S 6990   1.365   4.867   3.928  1.1869  0.7434  1.3252
   51DOPC  H18T 6991   1.266   4.897   3.791  2.3901  0.1339 -1.0518
   51DOPC   C33 6992   1.623   5.544   5.224  0.1886  0.1075  0.2486
   51DOPC   H3X 6993   1.733   5.558   5.219  0.2866 -0.9388 -1.3952
   51DOPC   H3Y 6994   1.587   5.631   5.282  2.1221 -0.5505  2.5957
   51DOPC   C34 6995   1.551   5.559   5.094 -0.6679 -0.1218 -0.4604
   51DOPC   H4X 6996   1.453   5.607   5.118 -1.7524 -2.5921  0.4495
   51DOPC   H4Y 6997   1.516   5.462   5.052  0.2619 -1.1709  1.1222
   51DOPC   C35 6998   1.641   5.609   4.982  0.0980 -0.0263  0.4827
   51DOPC   H5X 6999   1.607   5.567   4.885 -0.3250  3.0266 -0.7889
   51DOPC   H5Y 7000   1.745   5.572   4.996 -0.3227 -0.6610  2.1401
   51DOPC   C36 7001   1.649   5.762   4.972 -0.0900 -0.2956  0.6855
   51DOPC   H6X 7002   1.552   5.807   4.939  0.0935  1.0376  1.8571
   51DOPC   H6Y 7003   1.648   5.807   5.073 -2.2488  0.6625  0.3066
   51DOPC   C37 7004   1.755   5.827   4.876 -0.3432  0.5412  0.0190
   51DOPC   H7X 7005   1.736   5.937   4.876  1.3756  0.8743  0.0916
   51DOPC   H7Y 7006   1.853   5.814   4.927 -1.6270 -0.7294  2.2677
   51DOPC   C38 7007   1.758   5.774   4.731  0.2570 -0.4065  0.0171
   51DOPC   H8X 7008   1.664   5.816   4.688  0.4111  1.2809  1.2213
   51DOPC   H8Y 7009   1.754   5.663   4.730 -1.7624 -0.3887  1.2917
   51DOPC   C39 7010   1.866   5.847   4.654 -0.9921 -0.2518 -0.7356
   51DOPC   H9X 7011   1.872   5.955   4.671  0.5988  0.1279 -3.2349
   51DOPC  C310 7012   1.944   5.798   4.554  0.9334  0.0327 -0.2982
   51DOPC  H10X 7013   2.021   5.868   4.517  0.9572  0.2501  0.1529
   51DOPC  C311 7014   1.948   5.661   4.496  0.2933 -0.2319  0.3603
   51DOPC  H11X 7015   1.973   5.664   4.387 -1.6720 -1.5473 -0.1751
   51DOPC  H11Y 7016   1.844   5.624   4.499  0.7242 -1.4689  0.4219
   51DOPC  C312 7017   2.045   5.568   4.559  0.1436 -0.3794 -0.7094
   51DOPC  H12X 7018   2.142   5.619   4.577 -0.5917  0.4728  1.0270
   51DOPC  H12Y 7019   2.070   5.494   4.479 -3.2190 -2.6173  0.1037
   51DOPC  C313 7020   1.998   5.489   4.687 -0.0727 -0.2375 -0.2404
   51DOPC  H13X 7021   1.955   5.569   4.751  2.0405  0.1228  0.8299
   51DOPC  H13Y 7022   1.922   5.410   4.669 -1.2649  0.2255  2.2714
   51DOPC  C314 7023   2.117   5.446   4.774  0.2193  0.3597  0.1136
   51DOPC  H14X 7024   2.180   5.379   4.710  2.0290  2.4601 -0.4475
   51DOPC  H14Y 7025   2.182   5.534   4.796  0.1488  0.9034 -1.6621
   51DOPC  C315 7026   2.075   5.373   4.904  0.2520  0.3363 -0.3271
   51DOPC  H15X 7027   2.143   5.288   4.926  0.0712 -0.0795 -1.3089
   51DOPC  H15Y 7028   1.972   5.333   4.888  0.5409 -1.4696  1.8732
   51DOPC  C316 7029   2.064   5.471   5.020 -0.6282 -0.0910 -0.1741
   51DOPC  H16X 7030   2.165   5.498   5.060 -0.3367 -0.8618 -0.3788
   51DOPC  H16Y 7031   2.022   5.570   4.994 -1.7358  0.1032  2.1384
   51DOPC  C317 7032   1.988   5.420   5.147  0.2664 -0.9015  0.7714
   51DOPC  H17X 7033   1.885   5.399   5.111  0.4923 -1.9451  0.6890
   51DOPC  H17Y 7034   2.044   5.326   5.168  2.4748  0.3298  0.6973
   51DOPC  C318 7035   1.995   5.498   5.278  0.7344  0.5380 -0.0552
   51DOPC  H18X 7036   2.100   5.501   5.312  0.0438  2.7148  2.1331
   51DOPC  H18Y 7037   1.950   5.599   5.263 -1.1713 -0.0784  1.1552
   51DOPC  H18Z 7038   1.930   5.445   5.350  0.6476  0.3839 -0.2439
   52DOPC     N 7039   7.318   1.628   5.964 -0.9768 -0.1330  0.0552
   52DOPC   C12 7040   7.294   1.622   5.817 -0.3196 -0.3033  0.8608
   52DOPC  H12A 7041   7.360   1.545   5.779 -1.0152  0.1364 -1.3921
   52DOPC  H12B 7042   7.332   1.715   5.777 -0.7106  0.0323  1.2599
   52DOPC   C13 7043   7.217   1.723   6.029  0.8311  0.0872  0.3411
   52DOPC  H13A 7044   7.116   1.711   5.995  0.4191 -1.4319  1.9118
   52DOPC  H13B 7045   7.234   1.736   6.135  2.0176  1.2985  0.0264
   52DOPC  H13C 7046   7.242   1.820   5.991  1.2785 -0.0699  0.2275
   52DOPC   C14 7047   7.455   1.685   5.997 -0.9124 -0.2531 -0.2174
   52DOPC  H14A 7048   7.468   1.688   6.104 -0.4464 -2.4761 -0.1453
   52DOPC  H14B 7049   7.532   1.625   5.950 -1.9133  0.2940 -2.6917
   52DOPC  H14C 7050   7.471   1.782   5.952 -0.3819 -0.4875 -0.5511
   52DOPC   C15 7051   7.306   1.499   6.030  0.2909  0.1586  0.3164
   52DOPC  H15A 7052   7.321   1.514   6.136  1.5290  0.8098  0.0707
   52DOPC  H15B 7053   7.374   1.423   5.994 -0.2650  0.1447 -0.7322
   52DOPC  H15C 7054   7.207   1.460   6.015  0.7972 -1.0010 -0.0976
   52DOPC   C11 7055   7.157   1.596   5.761 -0.0322 -0.5969  0.2498
   52DOPC  H11A 7056   7.091   1.681   5.792  0.4146 -0.8337  1.9842
   52DOPC  H11B 7057   7.176   1.593   5.652 -1.8586 -0.6991 -0.0998
   52DOPC     P 7058   6.954   1.462   5.850 -0.1992  0.1912  0.5878
   52DOPC   O13 7059   6.928   1.565   5.953 -0.4492 -0.6958 -0.2833
   52DOPC   O14 7060   6.920   1.322   5.884 -0.6295  0.6240 -0.2418
   52DOPC   O12 7061   7.106   1.470   5.803 -0.3575  0.3704  0.5519
   52DOPC   O11 7062   6.864   1.500   5.724  0.3810 -0.0404 -0.5889
   52DOPC    C1 7063   6.857   1.421   5.610 -0.7255  0.5824 -0.2198
   52DOPC    HA 7064   6.902   1.321   5.626  0.7877  1.4361  1.0682
   52DOPC    HB 7065   6.921   1.465   5.531  0.6434 -0.5877  0.2046
   52DOPC    C2 7066   6.722   1.404   5.534 -0.0049 -0.2420 -0.6098
   52DOPC    HS 7067   6.642   1.408   5.610  0.0697  0.6753 -0.5715
   52DOPC   O21 7068   6.722   1.277   5.460  0.1337 -0.7011 -0.0310
   52DOPC   C21 7069   6.607   1.225   5.437 -0.0414  0.1003  0.1251
   52DOPC   O22 7070   6.498   1.262   5.481  0.2495  0.2279  0.2438
   52DOPC   C22 7071   6.646   1.093   5.359  0.2589 -0.0444  0.8363
   52DOPC   H2R 7072   6.572   1.018   5.395 -1.9208  0.4675 -2.2140
   52DOPC   H2S 7073   6.748   1.072   5.398  0.1388 -0.1057  1.1232
   52DOPC    C3 7074   6.696   1.534   5.446 -0.5602  0.6659  0.2431
   52DOPC    HX 7075   6.776   1.533   5.369 -1.0910  1.4075 -0.3393
   52DOPC    HY 7076   6.716   1.612   5.522  0.8651  0.6109 -0.0414
   52DOPC   O31 7077   6.561   1.555   5.397 -0.6954 -0.5178  0.4110
   52DOPC   C31 7078   6.547   1.542   5.266  0.0384  0.1546  0.7295
   52DOPC   O32 7079   6.632   1.524   5.180  0.0570  0.4281  0.1219
   52DOPC   C32 7080   6.398   1.570   5.233  0.0528 -0.0415  1.2754
   52DOPC   H2X 7081   6.341   1.478   5.258  1.5186 -1.6863 -1.0819
   52DOPC   H2Y 7082   6.366   1.655   5.297  2.4544  1.8212  0.1689
   52DOPC   C23 7083   6.648   1.108   5.207 -0.5829 -0.2307  0.3959
   52DOPC   H3R 7084   6.712   1.023   5.177 -2.1880 -2.2998  2.5093
   52DOPC   H3S 7085   6.707   1.197   5.176  2.3853 -1.9738  0.6603
   52DOPC   C24 7086   6.510   1.105   5.141  1.0547 -0.1259 -1.2164
   52DOPC   H4R 7087   6.462   1.205   5.147  1.9316  0.3493 -1.8585
   52DOPC   H4S 7088   6.452   1.036   5.205  3.3575 -1.6251 -0.6303
   52DOPC   C25 7089   6.507   1.054   5.000  0.2432 -0.8240  0.0366
   52DOPC   H5R 7090   6.548   0.951   4.998  0.9728 -0.5598  0.8760
   52DOPC   H5S 7091   6.566   1.126   4.939 -2.8787  0.8160 -1.2923
   52DOPC   C26 7092   6.365   1.065   4.945 -0.4192  0.3281 -0.1500
   52DOPC   H6R 7093   6.340   1.173   4.947  0.8805  0.6338  0.8533
   52DOPC   H6S 7094   6.292   1.008   5.005 -1.2176  1.1781 -0.2864
   52DOPC   C27 7095   6.357   1.005   4.800  0.4188  0.8188  0.0909
   52DOPC   H7R 7096   6.397   0.901   4.810  0.1829  0.3562 -2.8661
   52DOPC   H7S 7097   6.430   1.058   4.735  0.3254  0.2925 -0.4495
   52DOPC   C28 7098   6.216   0.999   4.748  0.4602 -0.8842  0.0899
   52DOPC   H8R 7099   6.152   0.967   4.833 -2.1704  0.1551 -1.3568
   52DOPC   H8S 7100   6.203   0.926   4.665 -1.9692 -0.8362  0.3553
   52DOPC   C29 7101   6.179   1.136   4.701  0.7020  0.1170  0.4983
   52DOPC   H9R 7102   6.147   1.194   4.789 -1.2305 -0.0999 -0.0092
   52DOPC  C210 7103   6.182   1.184   4.576 -0.2755 -0.2644 -0.0118
   52DOPC  H10R 7104   6.141   1.286   4.567  2.1626  0.9973  2.0264
   52DOPC  C211 7105   6.190   1.112   4.442 -0.5307 -0.2413  0.0288
   52DOPC  H11R 7106   6.104   1.144   4.379 -1.0793 -0.5730  0.6087
   52DOPC  H11S 7107   6.187   1.002   4.456  2.7818 -0.0167  4.5242
   52DOPC  C212 7108   6.327   1.140   4.376 -0.8862 -0.1223 -0.7990
   52DOPC  H12R 7109   6.354   1.049   4.317 -3.7144 -3.4902  2.5601
   52DOPC  H12S 7110   6.406   1.149   4.453 -0.6439  3.6345 -1.3101
   52DOPC  C213 7111   6.329   1.262   4.283  0.3174  0.0404  0.1251
   52DOPC  H13R 7112   6.431   1.303   4.266 -0.5228  1.2801 -2.4612
   52DOPC  H13S 7113   6.260   1.333   4.332 -0.4214 -0.0325 -0.7717
   52DOPC  C214 7114   6.273   1.232   4.146  0.0993  0.2172 -0.7540
   52DOPC  H14R 7115   6.174   1.183   4.154 -0.3012  0.7990 -1.9559
   52DOPC  H14S 7116   6.343   1.161   4.097  0.7337  0.8328 -0.7568
   52DOPC  C215 7117   6.267   1.353   4.045 -0.4892  0.3605 -0.4889
   52DOPC  H15R 7118   6.370   1.390   4.027  0.3984 -0.0691  3.0092
   52DOPC  H15S 7119   6.216   1.434   4.101  2.2381  0.9393  1.3072
   52DOPC  C216 7120   6.197   1.320   3.916  0.0202 -0.1401  0.2563
   52DOPC  H16R 7121   6.105   1.261   3.936 -1.3973  2.3982  1.6518
   52DOPC  H16S 7122   6.257   1.253   3.849 -1.3297  0.0931 -1.2466
   52DOPC  C217 7123   6.167   1.447   3.830 -0.0070 -0.2044 -0.9197
   52DOPC  H17R 7124   6.072   1.500   3.851 -0.4501 -1.2447 -0.2021
   52DOPC  H17S 7125   6.137   1.410   3.729  2.5282  0.2430 -1.9348
   52DOPC  C218 7126   6.295   1.531   3.806  0.0299 -0.0972 -0.4884
   52DOPC  H18R 7127   6.325   1.592   3.894 -1.8337  0.8220 -0.4436
   52DOPC  H18S 7128   6.263   1.596   3.723 -0.5034 -0.7712 -0.8195
   52DOPC  H18T 7129   6.375   1.466   3.764 -1.7472 -1.4551 -1.9182
   52DOPC   C33 7130   6.372   1.608   5.085  1.1327 -0.0556  0.8002
   52DOPC   H3X 7131   6.463   1.590   5.024  0.8852 -0.0404  0.4273
   52DOPC   H3Y 7132   6.347   1.716   5.082 -0.0962 -0.3584 -0.5726
   52DOPC   C34 7133   6.250   1.542   5.027  0.2049 -0.0541 -0.7028
   52DOPC   H4X 7134   6.166   1.558   5.099  1.0160  0.8774  0.0677
   52DOPC   H4Y 7135   6.262   1.434   5.008  0.1142 -0.0820 -0.6016
   52DOPC   C35 7136   6.197   1.618   4.906 -0.2084  0.4097 -0.0166
   52DOPC   H5X 7137   6.214   1.726   4.928  2.0896 -0.2788  2.1806
   52DOPC   H5Y 7138   6.095   1.583   4.880 -0.8222 -1.2999  4.0156
   52DOPC   C36 7139   6.290   1.601   4.776 -0.1697  0.3045 -0.0261
   52DOPC   H6X 7140   6.342   1.694   4.744  1.6671  0.2195  2.3914
   52DOPC   H6Y 7141   6.366   1.522   4.793  0.0529  0.1615 -1.5705
   52DOPC   C37 7142   6.194   1.583   4.655  0.3028 -0.5259 -0.9843
   52DOPC   H7X 7143   6.134   1.503   4.703  0.5284  0.0511  0.3088
   52DOPC   H7Y 7144   6.135   1.677   4.645  1.3424  0.5092  1.5705
   52DOPC   C38 7145   6.251   1.551   4.521  0.1976  0.5435 -0.5847
   52DOPC   H8X 7146   6.167   1.511   4.460 -0.6312  2.7297 -0.9766
   52DOPC   H8Y 7147   6.316   1.461   4.529 -0.7941 -0.0614  1.4025
   52DOPC   C39 7148   6.314   1.663   4.449 -0.3262  0.2824  0.2452
   52DOPC   H9X 7149   6.415   1.694   4.478 -0.7331  2.1308 -0.2096
   52DOPC  C310 7150   6.265   1.726   4.339 -0.9234  0.6312  0.3055
   52DOPC  H10X 7151   6.329   1.792   4.278 -1.2228 -0.4847 -1.2627
   52DOPC  C311 7152   6.131   1.708   4.271 -0.2060  0.6475 -0.2008
   52DOPC  H11X 7153   6.056   1.771   4.324 -1.3739 -0.7020 -0.2089
   52DOPC  H11Y 7154   6.097   1.604   4.289  1.9835  0.1159  1.4185
   52DOPC  C312 7155   6.119   1.735   4.119 -0.1764  0.9892 -0.3372
   52DOPC  H12X 7156   6.184   1.669   4.057  1.8866 -0.9702  3.5233
   52DOPC  H12Y 7157   6.158   1.837   4.101 -1.0704  0.8738 -3.7559
   52DOPC  C313 7158   5.973   1.719   4.070  0.0092 -0.2967  0.2195
   52DOPC  H13X 7159   5.967   1.620   4.021 -1.3242 -0.2634  0.2661
   52DOPC  H13Y 7160   5.900   1.708   4.153 -1.1825 -0.3837 -0.8054
   52DOPC  C314 7161   5.943   1.825   3.967 -0.2176 -0.8465  0.3518
   52DOPC  H14X 7162   5.985   1.924   3.998  1.1726 -1.0707 -0.7517
   52DOPC  H14Y 7163   5.977   1.807   3.863 -0.5513  2.7524 -0.5323
   52DOPC  C315 7164   5.789   1.842   3.957  0.1502  0.1981  0.0592
   52DOPC  H15X 7165   5.754   1.850   4.062  0.9265 -0.4732  0.3803
   52DOPC  H15Y 7166   5.746   1.754   3.903  0.2796  0.0009  0.2761
   52DOPC  C316 7167   5.741   1.969   3.888 -0.5626 -0.1895 -0.1395
   52DOPC  H16X 7168   5.829   2.037   3.887 -0.0512 -0.8417 -0.7743
   52DOPC  H16Y 7169   5.726   1.966   3.778 -0.5500  1.9384 -0.2469
   52DOPC  C317 7170   5.628   2.046   3.960 -0.0155  0.3869  0.6869
   52DOPC  H17X 7171   5.665   2.089   4.055  0.4068  1.5399  0.0184
   52DOPC  H17Y 7172   5.617   2.132   3.891 -2.1658 -2.7656 -3.3891
   52DOPC  C318 7173   5.509   1.960   3.980 -0.4172 -0.0851  0.1153
   52DOPC  H18X 7174   5.476   1.906   3.889  1.9483 -0.5599 -0.5475
   52DOPC  H18Y 7175   5.542   1.878   4.047  1.1615 -0.7940 -1.4596
   52DOPC  H18Z 7176   5.415   2.007   4.016 -0.2794 -0.3754  0.8888
   53DOPC     N 7177   2.412   4.314   5.870  0.4384  0.1243 -0.4275
   53DOPC   C12 7178   2.551   4.342   5.924  0.3231 -0.0191  0.5061
   53DOPC  H12A 7179   2.538   4.416   6.002 -2.3713  0.9615 -0.7431
   53DOPC  H12B 7180   2.605   4.398   5.850  1.5856 -0.3771  1.1320
   53DOPC   C13 7181   2.413   4.225   5.751  0.1979  0.2169  0.2093
   53DOPC  H13A 7182   2.463   4.273   5.669 -1.1667  2.5118  0.6285
   53DOPC  H13B 7183   2.474   4.140   5.779  1.0678  1.0853  0.9970
   53DOPC  H13C 7184   2.316   4.183   5.729 -0.1866  0.4023  1.4610
   53DOPC   C14 7185   2.351   4.441   5.827  0.8181 -1.3087  0.4338
   53DOPC  H14A 7186   2.248   4.435   5.797 -0.6820 -0.1334  4.6514
   53DOPC  H14B 7187   2.366   4.514   5.905  2.6461  0.7245 -1.6896
   53DOPC  H14C 7188   2.410   4.486   5.749 -0.6562  1.7015  0.9346
   53DOPC   C15 7189   2.324   4.256   5.982 -0.0756  0.1783  0.0231
   53DOPC  H15A 7190   2.340   4.321   6.066 -1.1275  0.8249 -0.2624
   53DOPC  H15B 7191   2.360   4.157   6.006 -1.3213  0.0379  1.4673
   53DOPC  H15C 7192   2.221   4.256   5.951  1.0306  0.7592 -4.3905
   53DOPC   C11 7193   2.636   4.235   5.975  0.1993  0.4667 -0.1205
   53DOPC  H11A 7194   2.723   4.286   6.022  0.9514  0.2549 -1.2278
   53DOPC  H11B 7195   2.581   4.178   6.053  0.0970 -1.0706 -1.2628
   53DOPC     P 7196   2.813   4.182   5.787  0.1135 -0.3578  0.0992
   53DOPC   O13 7197   2.933   4.147   5.866 -0.0528 -0.5801  0.2810
   53DOPC   O14 7198   2.803   4.320   5.739 -0.3810  0.4827  0.4879
   53DOPC   O12 7199   2.681   4.151   5.867 -0.4036  0.3979 -0.2621
   53DOPC   O11 7200   2.816   4.089   5.665 -0.4508 -0.6598  0.4838
   53DOPC    C1 7201   2.911   4.114   5.557  0.7261  0.4467  0.7366
   53DOPC    HA 7202   2.944   4.016   5.516 -0.6476 -0.4264  1.6504
   53DOPC    HB 7203   3.007   4.162   5.588  1.3555  0.2459 -0.8040
   53DOPC    C2 7204   2.845   4.196   5.440 -0.1473  0.2976 -0.0947
   53DOPC    HS 7205   2.822   4.291   5.491  2.2290  1.1432 -0.4590
   53DOPC   O21 7206   2.725   4.123   5.407 -0.4763  0.3696 -0.7896
   53DOPC   C21 7207   2.621   4.197   5.375  0.4004 -0.0274  0.3976
   53DOPC   O22 7208   2.617   4.317   5.381  0.3647  0.3182 -0.0064
   53DOPC   C22 7209   2.521   4.113   5.297 -0.0030 -0.1695  0.5540
   53DOPC   H2R 7210   2.496   4.020   5.353 -3.0178 -0.7401 -1.4992
   53DOPC   H2S 7211   2.570   4.085   5.202  1.1290  1.1312  0.7100
   53DOPC    C3 7212   2.942   4.215   5.317  0.0242  0.4587  0.8257
   53DOPC    HX 7213   2.971   4.113   5.285  0.6667  0.9941 -0.3136
   53DOPC    HY 7214   3.031   4.267   5.358  0.1167 -0.1091  1.3659
   53DOPC   O31 7215   2.873   4.285   5.201  0.3253  0.3591  0.2102
   53DOPC   C31 7216   2.852   4.411   5.227  0.4005  0.4375 -0.0802
   53DOPC   O32 7217   2.892   4.477   5.324  0.1746  0.3148 -0.1416
   53DOPC   C32 7218   2.773   4.452   5.096  0.1662  0.1007 -0.5938
   53DOPC   H2X 7219   2.837   4.429   5.009  0.7029 -1.3066  0.1389
   53DOPC   H2Y 7220   2.681   4.390   5.094 -0.0437  0.3889 -0.0876
   53DOPC   C23 7221   2.388   4.181   5.262 -0.2040  0.5046 -0.1741
   53DOPC   H3R 7222   2.343   4.199   5.362 -1.3079 -0.1368 -0.5312
   53DOPC   H3S 7223   2.315   4.107   5.223  0.8010 -2.1278  2.5686
   53DOPC   C24 7224   2.392   4.306   5.165  0.9047 -0.2209  0.3435
   53DOPC   H4R 7225   2.466   4.381   5.199  1.8531 -0.5723 -0.8594
   53DOPC   H4S 7226   2.289   4.347   5.174  0.4773 -1.1313 -0.2537
   53DOPC   C25 7227   2.433   4.256   5.027 -0.1006  0.1569  0.4014
   53DOPC   H5R 7228   2.371   4.168   5.002  0.6753 -0.4637  0.6398
   53DOPC   H5S 7229   2.538   4.219   5.035 -0.6566 -1.5725  0.0774
   53DOPC   C26 7230   2.431   4.365   4.918 -0.0853  0.4428 -0.0702
   53DOPC   H6R 7231   2.510   4.440   4.940  0.3682  0.1893 -0.7869
   53DOPC   H6S 7232   2.332   4.413   4.908  0.4554  1.2452 -2.0162
   53DOPC   C27 7233   2.480   4.307   4.784  0.3471  0.2343  0.6327
   53DOPC   H7R 7234   2.432   4.209   4.767  1.7655 -0.1932 -1.1861
   53DOPC   H7S 7235   2.590   4.295   4.780  0.1319 -1.8337 -0.4692
   53DOPC   C28 7236   2.428   4.393   4.667 -0.0233 -0.7785 -0.0096
   53DOPC   H8R 7237   2.319   4.408   4.678  0.3697  2.6868  0.3813
   53DOPC   H8S 7238   2.431   4.329   4.577 -2.2867  1.4531 -1.8350
   53DOPC   C29 7239   2.502   4.516   4.640  1.0115 -0.7360  0.1331
   53DOPC   H9R 7240   2.611   4.517   4.654  1.1139 -0.0789 -0.6189
   53DOPC  C210 7241   2.447   4.629   4.591 -0.7832  0.2356  0.0930
   53DOPC  H10R 7242   2.518   4.705   4.552  0.9265 -1.2293  0.2315
   53DOPC  C211 7243   2.302   4.653   4.575  0.6884 -0.1689 -0.4963
   53DOPC  H11R 7244   2.280   4.754   4.615  1.2399  1.0213 -2.9529
   53DOPC  H11S 7245   2.238   4.587   4.637  2.5373 -2.8584 -1.2383
   53DOPC  C212 7246   2.247   4.629   4.438  0.2363  0.3564  0.1487
   53DOPC  H12R 7247   2.269   4.523   4.416 -3.3299 -0.4617 -0.1000
   53DOPC  H12S 7248   2.297   4.694   4.363 -1.3849 -0.2347 -1.5233
   53DOPC  C213 7249   2.096   4.651   4.424  0.1902  0.0512 -0.6868
   53DOPC  H13R 7250   2.070   4.759   4.437  2.0316  0.4268  0.1770
   53DOPC  H13S 7251   2.028   4.596   4.492 -0.5563 -1.3656 -2.5015
   53DOPC  C214 7252   2.052   4.620   4.285  0.0812  0.6045 -0.0239
   53DOPC  H14R 7253   1.942   4.619   4.273 -0.0943 -1.9156  1.2826
   53DOPC  H14S 7254   2.087   4.521   4.250  2.4691  1.0594  0.8659
   53DOPC  C215 7255   2.103   4.719   4.180  0.1313 -0.0665 -0.1027
   53DOPC  H15R 7256   2.213   4.705   4.174  0.2674  0.6586  0.4500
   53DOPC  H15S 7257   2.090   4.825   4.213 -1.8462  0.2311 -1.6609
   53DOPC  C216 7258   2.035   4.701   4.045 -0.6637 -0.4072 -0.3478
   53DOPC  H16R 7259   1.925   4.699   4.060 -0.5658 -0.8246  0.3448
   53DOPC  H16S 7260   2.068   4.604   4.001  0.4276 -0.5889  0.8321
   53DOPC  C217 7261   2.086   4.806   3.949 -0.8535  0.3358 -0.2011
   53DOPC  H17R 7262   2.193   4.784   3.929 -0.1668  1.8202  1.5355
   53DOPC  H17S 7263   2.093   4.908   3.994 -0.6338  0.8673 -1.4051
   53DOPC  C218 7264   2.014   4.797   3.819  0.8986  0.9035  0.0067
   53DOPC  H18R 7265   1.907   4.819   3.837  0.5481 -0.2696 -0.6094
   53DOPC  H18S 7266   2.033   4.696   3.778 -1.2610 -0.3696  1.9337
   53DOPC  H18T 7267   2.048   4.866   3.739  0.8149 -1.1249 -1.8685
   53DOPC   C33 7268   2.763   4.608   5.102 -0.4707  0.6773  0.7420
   53DOPC   H3X 7269   2.719   4.632   5.002  0.1956 -2.6656 -0.5039
   53DOPC   H3Y 7270   2.860   4.660   5.113 -0.6140  0.9172  0.8731
   53DOPC   C34 7271   2.661   4.657   5.201  0.0549  0.3876  0.1723
   53DOPC   H4X 7272   2.707   4.673   5.301 -1.6614  0.6059  0.9645
   53DOPC   H4Y 7273   2.588   4.573   5.208  0.4834  0.0788  1.2698
   53DOPC   C35 7274   2.573   4.777   5.155  0.4007 -0.0585 -0.4923
   53DOPC   H5X 7275   2.639   4.865   5.141 -0.2235  1.1760  3.3104
   53DOPC   H5Y 7276   2.516   4.812   5.243 -0.0671 -3.1099  0.5353
   53DOPC   C36 7277   2.483   4.765   5.030 -0.2164  1.2026 -0.0473
   53DOPC   H6X 7278   2.529   4.731   4.935 -1.0920  0.6809 -0.2927
   53DOPC   H6Y 7279   2.414   4.681   5.052  0.9782 -0.1778 -1.4056
   53DOPC   C37 7280   2.406   4.890   5.005 -0.3303  0.0649 -0.7387
   53DOPC   H7X 7281   2.331   4.905   5.085 -1.0546 -4.5977 -0.2605
   53DOPC   H7Y 7282   2.466   4.984   5.000 -1.5448  1.0231  1.3707
   53DOPC   C38 7283   2.324   4.878   4.874  0.3024 -1.1149  0.2870
   53DOPC   H8X 7284   2.271   4.781   4.870 -0.9505 -0.4622  0.7141
   53DOPC   H8Y 7285   2.391   4.880   4.785 -0.3906 -1.9984 -0.2685
   53DOPC   C39 7286   2.215   4.985   4.852 -0.1480  0.1784 -0.2745
   53DOPC   H9X 7287   2.148   4.987   4.939  0.6981 -0.0143  0.3947
   53DOPC  C310 7288   2.190   5.064   4.747  0.0613  0.1538  0.5690
   53DOPC  H10X 7289   2.104   5.132   4.750  0.9865  1.7234 -2.9314
   53DOPC  C311 7290   2.269   5.077   4.616  0.0135  0.7394  0.3577
   53DOPC  H11X 7291   2.358   5.010   4.623 -1.2452 -0.9317  1.5201
   53DOPC  H11Y 7292   2.309   5.180   4.610  1.2618  0.2307 -0.4634
   53DOPC  C312 7293   2.192   5.040   4.491  0.8295 -0.3372 -0.0991
   53DOPC  H12X 7294   2.108   4.970   4.509 -0.2952  0.0441 -3.3154
   53DOPC  H12Y 7295   2.248   5.001   4.403  0.5123 -2.1599  0.4792
   53DOPC  C313 7296   2.130   5.160   4.420 -0.5208 -0.4066 -0.5280
   53DOPC  H13X 7297   2.053   5.213   4.480 -1.0520 -1.4594 -0.2509
   53DOPC  H13Y 7298   2.217   5.228   4.404  0.3978 -1.4749 -0.1751
   53DOPC  C314 7299   2.050   5.111   4.293 -0.2298  0.1213  0.2460
   53DOPC  H14X 7300   2.102   5.036   4.230 -3.4468 -0.4750 -1.9351
   53DOPC  H14Y 7301   1.962   5.050   4.323 -0.1641 -1.2256 -2.0987
   53DOPC  C315 7302   2.002   5.234   4.209 -0.5832  0.3600 -0.0441
   53DOPC  H15X 7303   2.088   5.295   4.174 -0.2733 -0.7313 -1.3004
   53DOPC  H15Y 7304   1.934   5.294   4.272  0.9094  1.7872  0.2593
   53DOPC  C316 7305   1.921   5.200   4.081 -0.1409 -0.9603  0.1289
   53DOPC  H16X 7306   1.978   5.123   4.024  2.0179 -1.2922  2.5196
   53DOPC  H16Y 7307   1.840   5.138   4.125  0.1590 -2.7128 -1.6136
   53DOPC  C317 7308   1.879   5.327   4.000 -0.3700  0.2337 -0.2366
   53DOPC  H17X 7309   1.821   5.290   3.913 -0.1296 -1.1929  0.1802
   53DOPC  H17Y 7310   1.813   5.386   4.067  1.8431  1.6901  0.8099
   53DOPC  C318 7311   2.008   5.410   3.958  0.2992 -0.1333  0.0032
   53DOPC  H18X 7312   2.038   5.463   4.051 -1.4031 -2.0396  1.7461
   53DOPC  H18Y 7313   2.087   5.344   3.917 -1.3286 -2.3673  0.2459
   53DOPC  H18Z 7314   1.977   5.476   3.874 -0.3907  1.2715  1.3078
   54DOPC     N 7315   3.594   4.480   6.237  0.5726  0.0052  0.0428
   54DOPC   C12 7316   3.625   4.593   6.138  0.6114  0.5763 -0.3344
   54DOPC  H12A 7317   3.709   4.648   6.177  0.4956  0.3952  0.1894
   54DOPC  H12B 7318   3.542   4.662   6.142  0.4545  0.3530  0.6142
   54DOPC   C13 7319   3.553   4.530   6.372  0.1290  0.0141 -0.0421
   54DOPC  H13A 7320   3.614   4.614   6.401  0.8208 -0.7897  0.9000
   54DOPC  H13B 7321   3.447   4.550   6.381 -0.0648 -0.5176 -0.9151
   54DOPC  H13C 7322   3.581   4.449   6.438  4.4109  2.0545  0.9969
   54DOPC   C14 7323   3.721   4.411   6.258 -0.2328  0.3448  0.9149
   54DOPC  H14A 7324   3.777   4.455   6.339  1.2677 -0.0408  0.1153
   54DOPC  H14B 7325   3.720   4.304   6.275  4.1848 -0.2020 -0.9761
   54DOPC  H14C 7326   3.771   4.428   6.164  0.7119  0.8821  1.4992
   54DOPC   C15 7327   3.489   4.387   6.188  0.8186 -0.2294 -0.0140
   54DOPC  H15A 7328   3.395   4.438   6.174  1.6520  0.8087 -2.3912
   54DOPC  H15B 7329   3.484   4.304   6.256  0.6129 -0.1814  0.0307
   54DOPC  H15C 7330   3.511   4.356   6.087 -1.8867 -0.9488 -0.4689
   54DOPC   C11 7331   3.639   4.554   5.991  0.0455  0.4991 -0.4904
   54DOPC  H11A 7332   3.542   4.523   5.948  0.8481 -0.0053 -2.0191
   54DOPC  H11B 7333   3.680   4.642   5.936 -0.2713  0.7198 -0.3768
   54DOPC     P 7334   3.700   4.308   5.880 -0.1160  0.0923 -0.3528
   54DOPC   O13 7335   3.591   4.230   5.943  0.0498  0.1833 -0.3401
   54DOPC   O14 7336   3.830   4.245   5.871  0.1677 -0.3879 -0.3905
   54DOPC   O12 7337   3.727   4.442   5.972 -0.4190 -0.0925 -0.5377
   54DOPC   O11 7338   3.653   4.374   5.736 -0.0758 -0.0074  0.5457
   54DOPC    C1 7339   3.707   4.493   5.683  0.1662  0.4352 -0.1402
   54DOPC    HA 7340   3.806   4.517   5.728  0.4650 -0.6906 -0.1805
   54DOPC    HB 7341   3.631   4.572   5.704 -1.3764 -1.1270  0.3511
   54DOPC    C2 7342   3.736   4.477   5.534  0.1139 -0.2193 -0.1143
   54DOPC    HS 7343   3.784   4.574   5.511 -1.0298  0.2493 -0.6221
   54DOPC   O21 7344   3.613   4.445   5.464  0.3529  0.5228  0.0925
   54DOPC   C21 7345   3.530   4.551   5.467 -1.2621  0.1892 -0.3303
   54DOPC   O22 7346   3.558   4.660   5.510  0.4155  0.4786  0.1835
   54DOPC   C22 7347   3.406   4.511   5.388  0.9312  0.1710 -0.0537
   54DOPC   H2R 7348   3.333   4.592   5.410  2.2703  1.5301 -0.4400
   54DOPC   H2S 7349   3.373   4.407   5.410  3.3108 -0.4128  1.0829
   54DOPC    C3 7350   3.837   4.361   5.499  0.1493 -0.6953  0.0385
   54DOPC    HX 7351   3.798   4.265   5.540  0.0214 -0.6255  0.0798
   54DOPC    HY 7352   3.932   4.377   5.554 -0.3544  2.1278  0.2060
   54DOPC   O31 7353   3.851   4.371   5.352  0.1455  0.0563  0.2262
   54DOPC   C31 7354   3.916   4.263   5.313  0.0969 -0.4506  0.7107
   54DOPC   O32 7355   3.949   4.174   5.388  0.0858 -0.1852  0.5214
   54DOPC   C32 7356   3.939   4.267   5.164 -0.4370  0.4031  0.2611
   54DOPC   H2X 7357   3.846   4.232   5.113  0.9239 -0.0627 -2.0308
   54DOPC   H2Y 7358   3.956   4.371   5.129  0.2847 -0.2196 -1.3177
   54DOPC   C23 7359   3.439   4.508   5.240 -0.0486  0.4582 -0.3940
   54DOPC   H3R 7360   3.456   4.401   5.220  0.8916  0.2011  1.5407
   54DOPC   H3S 7361   3.539   4.552   5.220 -0.2946  0.4092 -1.7974
   54DOPC   C24 7362   3.339   4.566   5.140 -0.5407 -0.0144 -0.0438
   54DOPC   H4R 7363   3.390   4.637   5.071 -2.0664  0.3129 -0.8799
   54DOPC   H4S 7364   3.281   4.640   5.199  1.2509  1.5343 -0.1191
   54DOPC   C25 7365   3.242   4.476   5.070 -0.4950 -0.0230  0.1523
   54DOPC   H5R 7366   3.189   4.415   5.146  0.7872 -0.1121  1.0235
   54DOPC   H5S 7367   3.301   4.405   5.008 -1.2192 -0.2741 -0.2619
   54DOPC   C26 7368   3.145   4.546   4.979 -0.1297  1.1524 -0.0637
   54DOPC   H6R 7369   3.198   4.630   4.930  0.4437  0.7127 -0.2104
   54DOPC   H6S 7370   3.061   4.591   5.036 -0.1676 -0.4976  1.2929
   54DOPC   C27 7371   3.087   4.454   4.869  0.4932  0.3666  0.7859
   54DOPC   H7R 7372   2.988   4.495   4.841  0.8647  1.1880  0.6387
   54DOPC   H7S 7373   3.048   4.360   4.914 -0.0666  0.9709  1.5967
   54DOPC   C28 7374   3.185   4.428   4.748 -0.6355 -0.0014 -0.6572
   54DOPC   H8R 7375   3.277   4.371   4.776 -1.3052  0.4236  2.9328
   54DOPC   H8S 7376   3.216   4.530   4.718  4.7292  0.4455  4.4397
   54DOPC   C29 7377   3.114   4.370   4.631 -0.0530  0.2598 -0.3288
   54DOPC   H9R 7378   3.128   4.437   4.545  1.0163  3.3880  2.1027
   54DOPC  C210 7379   3.042   4.253   4.621 -0.2863  0.1358 -0.0539
   54DOPC  H10R 7380   3.016   4.209   4.524 -1.4928  1.3045 -0.2920
   54DOPC  C211 7381   3.045   4.144   4.730  0.3885  0.0555 -0.2719
   54DOPC  H11R 7382   3.123   4.159   4.807  2.0455 -0.1758 -1.8234
   54DOPC  H11S 7383   3.080   4.049   4.685 -0.6435 -0.1005 -0.7670
   54DOPC  C212 7384   2.899   4.118   4.793  0.0470  0.1592  0.2268
   54DOPC  H12R 7385   2.833   4.099   4.707  0.0324 -1.3495  0.5505
   54DOPC  H12S 7386   2.868   4.216   4.837  0.8949 -0.1752  1.6215
   54DOPC  C213 7387   2.897   4.012   4.902 -0.2747 -0.2715 -0.0569
   54DOPC  H13R 7388   2.946   4.059   4.990  0.2675 -0.4577 -0.2553
   54DOPC  H13S 7389   2.958   3.923   4.875 -0.5036 -1.0694  1.8862
   54DOPC  C214 7390   2.759   3.963   4.944  0.1189 -0.5247  0.1078
   54DOPC  H14R 7391   2.683   4.025   4.892 -0.3307 -0.0756  1.2603
   54DOPC  H14S 7392   2.747   3.991   5.051  0.1688 -0.6639  0.1497
   54DOPC  C215 7393   2.734   3.812   4.933  0.4738  0.1583  0.1434
   54DOPC  H15R 7394   2.816   3.753   4.980  0.2037 -1.1098 -0.9258
   54DOPC  H15S 7395   2.736   3.770   4.830 -1.6048 -2.7248  1.1687
   54DOPC  C216 7396   2.601   3.782   4.991  0.7133  0.2582 -0.5444
   54DOPC  H16R 7397   2.556   3.689   4.950  2.9061 -1.1360  0.0503
   54DOPC  H16S 7398   2.533   3.866   4.964 -0.0570 -0.4323 -0.8161
   54DOPC  C217 7399   2.603   3.756   5.149  0.5677  0.5896  0.2873
   54DOPC  H17R 7400   2.680   3.815   5.203  0.2684  0.6683  0.6338
   54DOPC  H17S 7401   2.634   3.649   5.146  0.1379  0.4394 -3.3758
   54DOPC  C218 7402   2.463   3.762   5.223  0.4845 -0.1712  0.5298
   54DOPC  H18R 7403   2.403   3.855   5.211 -1.8979 -1.0467  4.1791
   54DOPC  H18S 7404   2.474   3.754   5.333 -0.7971  0.1126  0.7031
   54DOPC  H18T 7405   2.405   3.671   5.197  0.6564 -0.3822  0.8836
   54DOPC   C33 7406   4.064   4.189   5.129  0.4038  0.1236 -0.3624
   54DOPC   H3X 7407   4.058   4.094   5.186  1.1225  0.2218 -0.1011
   54DOPC   H3Y 7408   4.151   4.249   5.165  1.3794 -1.0350 -0.7190
   54DOPC   C34 7409   4.084   4.165   4.981 -0.7392  0.2148  0.2459
   54DOPC   H4X 7410   4.075   4.261   4.927 -1.5043  0.8691  1.4823
   54DOPC   H4Y 7411   4.007   4.095   4.942  0.0732 -0.2913 -0.4858
   54DOPC   C35 7412   4.223   4.101   4.950  0.4865 -0.6595  0.4529
   54DOPC   H5X 7413   4.245   4.011   5.011 -0.2019 -0.5985  0.7989
   54DOPC   H5Y 7414   4.298   4.179   4.975 -0.0175 -0.2366  0.6534
   54DOPC   C36 7415   4.257   4.058   4.803  0.2660 -0.0162 -0.9372
   54DOPC   H6X 7416   4.355   4.006   4.798  0.6357  0.6563 -0.6978
   54DOPC   H6Y 7417   4.178   3.981   4.788 -1.1830  0.7219  2.0748
   54DOPC   C37 7418   4.261   4.172   4.703 -0.5601 -0.4578 -1.1741
   54DOPC   H7X 7419   4.318   4.247   4.761  1.0010 -1.9542 -0.6878
   54DOPC   H7Y 7420   4.333   4.151   4.621  0.1958  2.4429 -1.3593
   54DOPC   C38 7421   4.132   4.201   4.630 -0.2924 -0.4735 -0.5290
   54DOPC   H8X 7422   4.138   4.301   4.582  0.3703 -1.0373 -1.6682
   54DOPC   H8Y 7423   4.064   4.211   4.717  0.5439 -1.2179  0.2294
   54DOPC   C39 7424   4.098   4.093   4.520 -0.1080  0.1869  0.2457
   54DOPC   H9X 7425   4.099   3.993   4.566 -0.2525  0.3904  0.6970
   54DOPC  C310 7426   4.097   4.103   4.385 -0.1985  1.6073 -0.5361
   54DOPC  H10X 7427   4.071   4.012   4.329 -1.9546  0.6042  1.7254
   54DOPC  C311 7428   4.119   4.225   4.298 -0.5849  0.1779 -0.4766
   54DOPC  H11X 7429   4.221   4.219   4.255 -0.6815 -0.5239 -0.6186
   54DOPC  H11Y 7430   4.113   4.311   4.368 -1.0453 -0.1609 -0.0894
   54DOPC  C312 7431   4.018   4.248   4.181  0.2494  0.8654 -0.2652
   54DOPC  H12X 7432   4.014   4.348   4.134  1.8384 -0.0224 -2.4747
   54DOPC  H12Y 7433   3.920   4.223   4.227  0.8656  0.7942  1.0463
   54DOPC  C313 7434   4.043   4.147   4.068 -0.5179  0.3301  0.2669
   54DOPC  H13X 7435   4.062   4.047   4.111  0.7505  1.1066  1.6159
   54DOPC  H13Y 7436   3.939   4.134   4.030 -0.1846 -1.2351 -0.1542
   54DOPC  C314 7437   4.138   4.197   3.959 -0.1851  0.4288  0.0036
   54DOPC  H14X 7438   4.115   4.304   3.942 -0.0102  0.5841  0.7329
   54DOPC  H14Y 7439   4.246   4.205   3.986 -0.0036  1.5438 -0.9580
   54DOPC  C315 7440   4.119   4.124   3.827  0.1714  0.0533 -0.1230
   54DOPC  H15X 7441   4.028   4.159   3.776  0.5137 -0.1977 -0.9172
   54DOPC  H15Y 7442   4.097   4.016   3.837  1.0570 -0.0718  0.6745
   54DOPC  C316 7443   4.238   4.156   3.726 -0.3161  0.2932  0.2217
   54DOPC  H16X 7444   4.262   4.264   3.729  1.6377 -0.0847  3.4464
   54DOPC  H16Y 7445   4.328   4.114   3.776  2.5541 -0.4175 -4.7727
   54DOPC  C317 7446   4.226   4.085   3.588 -0.1551 -0.4659  0.4361
   54DOPC  H17X 7447   4.132   4.126   3.546  0.5572 -0.9114 -1.7431
   54DOPC  H17Y 7448   4.303   4.114   3.513  0.2644  1.3225  1.4990
   54DOPC  C318 7449   4.197   3.932   3.588 -0.8080  0.7891  0.1386
   54DOPC  H18X 7450   4.277   3.875   3.640 -0.8187 -2.0607 -2.7100
   54DOPC  H18Y 7451   4.106   3.908   3.646 -1.0619  1.7827  0.1638
   54DOPC  H18Z 7452   4.199   3.893   3.484 -0.4086 -1.5353  0.9566
   55DOPC     N 7453   2.605   5.264   6.259  0.3089  0.2565  0.0631
   55DOPC   C12 7454   2.614   5.267   6.110 -0.1886  0.1692 -0.3396
   55DOPC  H12A 7455   2.703   5.322   6.084  1.3745 -2.3507 -0.6587
   55DOPC  H12B 7456   2.531   5.319   6.064 -0.8191  1.7887  2.4131
   55DOPC   C13 7457   2.494   5.171   6.310 -0.2519  0.4199 -1.3058
   55DOPC  H13A 7458   2.394   5.208   6.293 -0.0445  1.0105 -1.2540
   55DOPC  H13B 7459   2.504   5.075   6.261 -0.6141 -0.6892  0.6740
   55DOPC  H13C 7460   2.508   5.150   6.415  3.5241  0.3397 -1.6902
   55DOPC   C14 7461   2.570   5.400   6.309 -0.1329  0.2248 -0.3076
   55DOPC  H14A 7462   2.547   5.391   6.414 -2.4534  3.6398 -0.3439
   55DOPC  H14B 7463   2.656   5.464   6.294 -1.1050  0.9672 -3.7916
   55DOPC  H14C 7464   2.484   5.447   6.262 -0.9541  0.6418  1.5306
   55DOPC   C15 7465   2.734   5.215   6.322  0.6906 -0.8721 -0.4822
   55DOPC  H15A 7466   2.757   5.115   6.292  1.5225 -0.4734 -1.2124
   55DOPC  H15B 7467   2.724   5.227   6.429  0.3576  0.2648 -0.6260
   55DOPC  H15C 7468   2.819   5.277   6.296  0.2740 -0.1189 -0.0941
   55DOPC   C11 7469   2.643   5.130   6.037  0.3004  0.1670 -0.9334
   55DOPC  H11A 7470   2.662   5.146   5.929  3.4082  0.1402 -0.4829
   55DOPC  H11B 7471   2.741   5.098   6.080  0.6392  0.4060 -1.5237
   55DOPC     P 7472   2.428   5.011   5.954  0.0680 -0.4110  0.5071
   55DOPC   O13 7473   2.354   5.137   5.951 -0.3481 -0.0097 -0.0134
   55DOPC   O14 7474   2.349   4.891   5.985  0.5681 -0.1277 -0.1119
   55DOPC   O12 7475   2.541   5.032   6.063  0.3758  0.0218 -0.4235
   55DOPC   O11 7476   2.505   4.990   5.818 -0.4347  0.3433 -0.0592
   55DOPC    C1 7477   2.469   5.062   5.699 -0.7359 -0.2257 -0.1292
   55DOPC    HA 7478   2.507   5.165   5.714  2.7250 -1.5621  1.3830
   55DOPC    HB 7479   2.359   5.058   5.688 -1.1869  2.9485  1.8323
   55DOPC    C2 7480   2.532   4.989   5.575 -0.2530 -0.6465 -0.5816
   55DOPC    HS 7481   2.498   5.053   5.491  2.5728  0.5756 -0.8792
   55DOPC   O21 7482   2.492   4.850   5.564 -0.5491 -0.2649  0.3271
   55DOPC   C21 7483   2.372   4.843   5.523 -0.3946  0.5922  0.1527
   55DOPC   O22 7484   2.291   4.932   5.498  0.0851 -0.1156  0.3802
   55DOPC   C22 7485   2.345   4.687   5.519 -0.8838 -0.1765  0.4207
   55DOPC   H2R 7486   2.355   4.645   5.622 -0.8208  0.2669  0.5968
   55DOPC   H2S 7487   2.432   4.645   5.465 -0.2672  0.8324  0.6145
   55DOPC    C3 7488   2.692   4.988   5.576 -0.0719 -0.0980 -0.7026
   55DOPC    HX 7489   2.710   4.924   5.665 -1.1928  1.1452  0.4656
   55DOPC    HY 7490   2.734   5.088   5.600 -0.9646  0.3451 -0.9064
   55DOPC   O31 7491   2.752   4.939   5.450 -0.1779 -0.1350 -0.2362
   55DOPC   C31 7492   2.887   4.914   5.476  0.0075  0.1023 -0.2037
   55DOPC   O32 7493   2.935   4.924   5.586 -0.1708 -0.0358 -0.0691
   55DOPC   C32 7494   2.952   4.854   5.350 -0.2133  0.6100 -0.5251
   55DOPC   H2X 7495   2.892   4.771   5.306  1.4071 -1.0203  0.1823
   55DOPC   H2Y 7496   2.944   4.926   5.266  0.9999  1.2028 -0.1505
   55DOPC   C23 7497   2.227   4.640   5.445  0.3661  0.3562 -0.0333
   55DOPC   H3R 7498   2.146   4.685   5.505  0.2704 -0.7029  0.6525
   55DOPC   H3S 7499   2.220   4.531   5.462 -1.8130  0.6337  1.1826
   55DOPC   C24 7500   2.225   4.682   5.298  0.2861 -0.7304  0.2740
   55DOPC   H4R 7501   2.308   4.632   5.245  1.0707 -0.6224  1.3733
   55DOPC   H4S 7502   2.261   4.787   5.288  0.9717 -0.9549  0.3675
   55DOPC   C25 7503   2.099   4.642   5.233  0.9270 -0.0996  0.3946
   55DOPC   H5R 7504   2.021   4.716   5.264  1.5780  1.2654 -1.0992
   55DOPC   H5S 7505   2.080   4.537   5.263  0.5760 -0.2286 -0.2554
   55DOPC   C26 7506   2.116   4.645   5.075  0.0112 -0.1518 -0.2498
   55DOPC   H6R 7507   2.207   4.588   5.046 -1.2115 -1.6405 -1.3894
   55DOPC   H6S 7508   2.116   4.750   5.039 -3.3616  0.1850  0.3833
   55DOPC   C27 7509   2.000   4.575   5.002 -0.2391  0.5949  1.2215
   55DOPC   H7R 7510   1.900   4.616   5.025 -0.6424  0.9825 -1.0116
   55DOPC   H7S 7511   1.988   4.472   5.044  3.2576 -1.9772 -3.1313
   55DOPC   C28 7512   2.012   4.578   4.846 -0.2936 -0.1462 -0.9010
   55DOPC   H8R 7513   2.098   4.513   4.818  1.7571  2.0039  0.0364
   55DOPC   H8S 7514   2.039   4.683   4.825  0.2030  0.1669  1.0673
   55DOPC   C29 7515   1.893   4.527   4.765 -0.1447  1.1637  0.5161
   55DOPC   H9R 7516   1.882   4.417   4.766 -1.8794  1.3122  1.6378
   55DOPC  C210 7517   1.810   4.609   4.699  0.0629 -0.0454 -0.1245
   55DOPC  H10R 7518   1.729   4.565   4.638 -0.3264  3.1327 -2.1163
   55DOPC  C211 7519   1.821   4.760   4.681 -0.3002  0.8606  0.7120
   55DOPC  H11R 7520   1.914   4.812   4.709 -0.1391  1.3939 -0.7558
   55DOPC  H11S 7521   1.750   4.806   4.754 -1.0472  0.5089  0.2198
   55DOPC  C212 7522   1.791   4.817   4.533  0.4275  0.3070  0.1609
   55DOPC  H12R 7523   1.845   4.762   4.453 -0.0136 -0.8928  0.6711
   55DOPC  H12S 7524   1.825   4.922   4.518  0.5158  0.2632  0.0516
   55DOPC  C213 7525   1.641   4.816   4.505  0.1456  0.5938 -0.2897
   55DOPC  H13R 7526   1.592   4.893   4.568  0.0555  1.8397 -1.8172
   55DOPC  H13S 7527   1.597   4.719   4.536  0.9910  0.3833  0.2901
   55DOPC  C214 7528   1.588   4.852   4.370  0.4227  0.2230 -0.2627
   55DOPC  H14R 7529   1.613   4.953   4.330 -0.2085 -0.8062 -3.5635
   55DOPC  H14S 7530   1.477   4.846   4.365  0.4545 -0.5350 -0.1329
   55DOPC  C215 7531   1.633   4.748   4.270 -0.3529  0.1900  0.1860
   55DOPC  H15R 7532   1.588   4.653   4.308 -2.3950  1.1164  0.1859
   55DOPC  H15S 7533   1.744   4.749   4.259 -0.3002  1.1298  0.7177
   55DOPC  C216 7534   1.571   4.766   4.142  0.4146 -0.3219  0.7725
   55DOPC  H16R 7535   1.638   4.827   4.078 -0.1812  1.0679  1.4225
   55DOPC  H16S 7536   1.469   4.811   4.142  0.6531  0.2278  0.2977
   55DOPC  C217 7537   1.562   4.639   4.056 -0.1182 -0.0839  0.6460
   55DOPC  H17R 7538   1.505   4.664   3.964  1.7159  0.9129 -0.2611
   55DOPC  H17S 7539   1.516   4.556   4.114 -0.9509 -1.4168 -1.7609
   55DOPC  C218 7540   1.700   4.579   4.018 -0.0158 -0.5455 -0.2081
   55DOPC  H18R 7541   1.764   4.542   4.102 -1.3365 -0.1337  1.0231
   55DOPC  H18S 7542   1.755   4.657   3.962  1.2458 -0.4619  1.0877
   55DOPC  H18T 7543   1.678   4.492   3.952 -1.8912 -0.9785  0.9185
   55DOPC   C33 7544   3.101   4.830   5.362 -0.7385  0.9227  0.2934
   55DOPC   H3X 7545   3.131   4.772   5.273  1.0347  0.7122  0.9790
   55DOPC   H3Y 7546   3.128   4.764   5.447 -0.6674  1.3558  0.6125
   55DOPC   C34 7547   3.180   4.954   5.390 -0.2526  0.1439  0.1770
   55DOPC   H4X 7548   3.280   4.916   5.420 -0.2501  1.2611  1.7345
   55DOPC   H4Y 7549   3.139   5.016   5.473 -2.0303 -1.9214  0.9381
   55DOPC   C35 7550   3.198   5.038   5.261  0.2965 -0.7401 -0.2521
   55DOPC   H5X 7551   3.105   5.043   5.200 -0.9805 -0.1897  1.6042
   55DOPC   H5Y 7552   3.269   4.983   5.197 -2.3283 -3.8077 -0.7979
   55DOPC   C36 7553   3.246   5.178   5.289  0.4070 -0.0807 -0.1117
   55DOPC   H6X 7554   3.186   5.235   5.363  0.1300 -0.3219 -0.1504
   55DOPC   H6Y 7555   3.338   5.164   5.349 -1.0110 -1.1462  1.9191
   55DOPC   C37 7556   3.274   5.255   5.163 -0.2616  0.4982  0.4982
   55DOPC   H7X 7557   3.329   5.180   5.102 -3.2296  1.1763 -3.4255
   55DOPC   H7Y 7558   3.187   5.274   5.097  0.8775  1.1421 -0.8672
   55DOPC   C38 7559   3.351   5.389   5.190  0.4088  0.7339 -0.4745
   55DOPC   H8X 7560   3.383   5.435   5.094  1.5511 -0.8266 -0.8936
   55DOPC   H8Y 7561   3.447   5.364   5.240 -1.0660  1.6810  3.1041
   55DOPC   C39 7562   3.250   5.476   5.267 -1.0263 -0.5358  0.4832
   55DOPC   H9X 7563   3.250   5.448   5.373  0.4969  2.3842  1.3393
   55DOPC  C310 7564   3.183   5.584   5.216 -0.2806 -0.1158  0.4489
   55DOPC  H10X 7565   3.135   5.650   5.290 -0.3916  2.7589 -2.0185
   55DOPC  C311 7566   3.196   5.631   5.071  0.2336 -0.3310 -0.1614
   55DOPC  H11X 7567   3.295   5.617   5.023 -0.5387 -0.2886 -1.8387
   55DOPC  H11Y 7568   3.186   5.741   5.056  0.4306 -0.2892  0.0039
   55DOPC  C312 7569   3.083   5.566   4.982  0.5522 -0.5287  0.5042
   55DOPC  H12X 7570   3.109   5.458   4.982  0.1994 -0.6151  0.3256
   55DOPC  H12Y 7571   3.098   5.602   4.879 -2.1161 -1.3429 -0.2464
   55DOPC  C313 7572   2.939   5.586   5.025  0.4749  0.1178  0.1484
   55DOPC  H13X 7573   2.875   5.502   4.988  0.0286 -0.6361  2.4407
   55DOPC  H13Y 7574   2.931   5.580   5.136  1.4524 -0.9869  0.1807
   55DOPC  C314 7575   2.872   5.717   4.984 -0.3006 -0.2979 -0.0886
   55DOPC  H14X 7576   2.936   5.792   5.035 -0.5127  1.4104 -2.1760
   55DOPC  H14Y 7577   2.880   5.742   4.876  0.2210  1.4223  0.3113
   55DOPC  C315 7578   2.733   5.741   5.041  0.2524 -0.0855  0.0645
   55DOPC  H15X 7579   2.719   5.843   5.085 -2.9352 -1.9812  4.1478
   55DOPC  H15Y 7580   2.717   5.659   5.114  2.7897 -0.0774  0.7169
   55DOPC  C316 7581   2.626   5.728   4.938 -0.9548  0.5864  0.0306
   55DOPC  H16X 7582   2.657   5.790   4.851 -2.5977 -0.4307 -1.3505
   55DOPC  H16Y 7583   2.625   5.622   4.904 -0.6322  0.9033 -1.0065
   55DOPC  C317 7584   2.493   5.768   4.993  0.4162 -0.4674  0.5042
   55DOPC  H17X 7585   2.471   5.702   5.079 -1.4930  2.9992  2.9157
   55DOPC  H17Y 7586   2.509   5.865   5.046 -0.9952 -1.3491  2.6868
   55DOPC  C318 7587   2.373   5.784   4.892 -0.0600  0.3593  0.6727
   55DOPC  H18X 7588   2.338   5.692   4.841 -0.3435  0.2262  1.0980
   55DOPC  H18Y 7589   2.284   5.821   4.948  0.5805 -0.8876  2.6003
   55DOPC  H18Z 7590   2.403   5.854   4.811 -0.8647 -0.0981 -0.0344
   56DOPC     N 7591   3.105   5.826   5.913  0.4551  0.6619 -0.3044
   56DOPC   C12 7592   3.155   5.967   5.885  0.7084 -0.1036  0.3921
   56DOPC  H12A 7593   3.254   5.987   5.922  0.0116  0.4240  2.0526
   56DOPC  H12B 7594   3.089   6.039   5.931  1.4534  1.6219 -1.1237
   56DOPC   C13 7595   2.962   5.810   5.867  0.3793  0.5359  0.2006
   56DOPC  H13A 7596   2.905   5.894   5.902  1.1217  1.8826 -1.6707
   56DOPC  H13B 7597   2.965   5.813   5.759 -0.8647  1.4303  0.1739
   56DOPC  H13C 7598   2.917   5.714   5.890 -1.8830  1.0950 -1.5677
   56DOPC   C14 7599   3.103   5.807   6.067  0.6732  0.4696  0.3416
   56DOPC  H14A 7600   3.200   5.824   6.111  1.3395 -0.0197 -0.8801
   56DOPC  H14B 7601   3.040   5.877   6.120 -1.0889 -1.9704  1.6695
   56DOPC  H14C 7602   3.070   5.709   6.097  2.9734 -0.4322  0.1447
   56DOPC   C15 7603   3.195   5.724   5.852 -0.3398 -0.1305  0.6421
   56DOPC  H15A 7604   3.175   5.620   5.872  0.4831 -0.4577 -0.2031
   56DOPC  H15B 7605   3.297   5.749   5.876 -0.8479  1.4982  1.2376
   56DOPC  H15C 7606   3.197   5.732   5.745 -1.8175 -0.9768  0.5205
   56DOPC   C11 7607   3.148   5.993   5.725  0.6170 -0.1991  0.2446
   56DOPC  H11A 7608   3.198   6.090   5.704 -0.0389  0.3306  1.0830
   56DOPC  H11B 7609   3.216   5.918   5.679 -0.4819 -0.7208 -0.5683
   56DOPC     P 7610   2.926   6.104   5.680 -0.0220 -0.1826  0.1726
   56DOPC   O13 7611   2.962   6.173   5.807  0.2980 -0.0900  0.1482
   56DOPC   O14 7612   2.783   6.055   5.659 -0.1662  0.0946 -0.5300
   56DOPC   O12 7613   3.023   5.980   5.663 -0.0680  0.3511 -0.2487
   56DOPC   O11 7614   2.968   6.200   5.560 -0.0452  0.1099  0.7858
   56DOPC    C1 7615   2.980   6.137   5.433  0.3661  0.6456  0.0612
   56DOPC    HA 7616   2.913   6.189   5.361  0.5365  2.1407  0.9368
   56DOPC    HB 7617   2.943   6.033   5.426  0.2837  0.7472 -1.2675
   56DOPC    C2 7618   3.120   6.141   5.372 -0.1097  0.1896  0.5490
   56DOPC    HS 7619   3.200   6.122   5.447  0.6524 -0.2847 -0.3594
   56DOPC   O21 7620   3.152   6.263   5.299  0.0121  0.4812  0.3568
   56DOPC   C21 7621   3.180   6.370   5.372 -0.2127 -0.0411  0.0993
   56DOPC   O22 7622   3.233   6.365   5.480  0.4130  0.4717 -0.0315
   56DOPC   C22 7623   3.149   6.505   5.300  0.1800  0.5289 -0.4103
   56DOPC   H2R 7624   3.235   6.575   5.307 -1.5599  2.8558 -1.2739
   56DOPC   H2S 7625   3.065   6.555   5.352  1.1688  0.3757  1.4369
   56DOPC    C3 7626   3.134   6.027   5.266 -0.0843  0.2832  0.4561
   56DOPC    HX 7627   3.060   6.042   5.185  0.0678  0.3768  0.3347
   56DOPC    HY 7628   3.122   5.924   5.306  1.9205  0.0510  0.5732
   56DOPC   O31 7629   3.260   6.027   5.194 -0.1738  0.3494 -0.0348
   56DOPC   C31 7630   3.369   5.985   5.245  0.3397 -0.4028 -0.1951
   56DOPC   O32 7631   3.380   5.941   5.353  0.2859  0.6430 -0.1069
   56DOPC   C32 7632   3.467   5.991   5.141 -0.0433 -0.6751  0.2803
   56DOPC   H2X 7633   3.461   6.086   5.085  0.0418 -1.9448 -2.0221
   56DOPC   H2Y 7634   3.571   5.994   5.180  0.2963 -0.3776 -0.6014
   56DOPC   C23 7635   3.103   6.493   5.154 -0.6758 -0.2888 -0.1317
   56DOPC   H3R 7636   3.077   6.599   5.131  1.8485  1.1568  2.8900
   56DOPC   H3S 7637   3.014   6.426   5.157 -0.3308 -0.8534 -1.5920
   56DOPC   C24 7638   3.206   6.433   5.051  0.3756  0.0239 -0.2983
   56DOPC   H4R 7639   3.215   6.323   5.063  2.2868  0.2380  0.7514
   56DOPC   H4S 7640   3.309   6.470   5.074  0.4246 -0.4557  0.2869
   56DOPC   C25 7641   3.175   6.469   4.909 -0.0150  0.5665 -0.7224
   56DOPC   H5R 7642   3.151   6.577   4.913 -0.8800  0.3492  1.2020
   56DOPC   H5S 7643   3.082   6.416   4.880  0.4216 -0.8063  0.2706
   56DOPC   C26 7644   3.291   6.444   4.807 -0.0983  0.1212 -0.1717
   56DOPC   H6R 7645   3.378   6.507   4.835 -1.0439  1.2433  0.3604
   56DOPC   H6S 7646   3.236   6.482   4.718  0.9166 -1.8147 -1.7041
   56DOPC   C27 7647   3.334   6.304   4.789 -0.1391  0.9374 -0.9934
   56DOPC   H7R 7648   3.437   6.317   4.747  0.0139 -0.2405 -1.0099
   56DOPC   H7S 7649   3.350   6.251   4.885 -1.3851  0.8757 -0.8049
   56DOPC   C28 7650   3.263   6.216   4.684 -0.2674 -0.0545  0.0352
   56DOPC   H8R 7651   3.332   6.137   4.644  2.0131  1.4433  0.7978
   56DOPC   H8S 7652   3.238   6.289   4.604  0.1062  1.0058  0.8785
   56DOPC   C29 7653   3.130   6.171   4.735  0.7518  0.1289  0.4518
   56DOPC   H9R 7654   3.078   6.261   4.771  2.3541  1.1333  0.3054
   56DOPC  C210 7655   3.062   6.052   4.725  0.1417  0.0747  0.0776
   56DOPC  H10R 7656   2.956   6.054   4.755  0.0257  1.0922 -0.3465
   56DOPC  C211 7657   3.106   5.929   4.659 -0.2739  0.3571 -0.1133
   56DOPC  H11R 7658   3.103   5.839   4.724 -2.0082 -0.9442 -1.8902
   56DOPC  H11S 7659   3.211   5.936   4.625  1.2435 -1.0614  3.7533
   56DOPC  C212 7660   3.009   5.890   4.543 -0.1064 -0.1330 -0.6974
   56DOPC  H12R 7661   3.063   5.831   4.466  1.5651  0.9622 -0.4143
   56DOPC  H12S 7662   2.971   5.977   4.487  0.3061  0.1778 -0.5043
   56DOPC  C213 7663   2.889   5.805   4.586  0.0835  0.0463  0.3264
   56DOPC  H13R 7664   2.842   5.856   4.673  1.5638  1.1962  0.5053
   56DOPC  H13S 7665   2.929   5.707   4.620  0.1165 -0.7569 -1.8690
   56DOPC  C214 7666   2.794   5.787   4.468 -0.9087  0.0070  0.4120
   56DOPC  H14R 7667   2.838   5.726   4.386 -2.8099  0.2106 -0.8040
   56DOPC  H14S 7668   2.761   5.883   4.423  3.3384  1.5091  0.0509
   56DOPC  C215 7669   2.661   5.721   4.513 -0.3774 -0.1117 -0.8872
   56DOPC  H15R 7670   2.626   5.765   4.609 -1.5384  0.1745 -1.4227
   56DOPC  H15S 7671   2.687   5.620   4.550 -2.6041 -0.2740  0.4078
   56DOPC  C216 7672   2.551   5.710   4.406 -0.9535 -0.3073  0.2906
   56DOPC  H16R 7673   2.487   5.625   4.441  0.5040 -0.9345  1.5283
   56DOPC  H16S 7674   2.604   5.677   4.314 -0.5822 -0.1331  0.4412
   56DOPC  C217 7675   2.458   5.826   4.379 -0.2608 -0.4491 -0.2541
   56DOPC  H17R 7676   2.389   5.787   4.301  0.1203 -1.6271 -0.0307
   56DOPC  H17S 7677   2.510   5.912   4.332  0.8482 -1.7005 -1.4175
   56DOPC  C218 7678   2.376   5.870   4.497  0.7944 -0.6995 -0.5560
   56DOPC  H18R 7679   2.302   5.793   4.530  1.1634  0.3462  3.1969
   56DOPC  H18S 7680   2.319   5.963   4.475  0.5246 -1.0075 -1.1752
   56DOPC  H18T 7681   2.446   5.885   4.582  0.7068 -0.3925 -0.5379
   56DOPC   C33 7682   3.443   5.891   5.025  0.0278  0.4420  0.4133
   56DOPC   H3X 7683   3.345   5.911   4.976  0.4211  1.0720 -0.1160
   56DOPC   H3Y 7684   3.439   5.797   5.085 -1.0782  1.3999  1.9271
   56DOPC   C34 7685   3.537   5.903   4.902  0.0954 -0.3877  0.4761
   56DOPC   H4X 7686   3.619   5.828   4.914 -0.9727 -2.1283 -2.1591
   56DOPC   H4Y 7687   3.565   6.009   4.883 -0.3666 -0.0646  1.5299
   56DOPC   C35 7688   3.456   5.868   4.773  0.8995 -0.3935  0.9158
   56DOPC   H5X 7689   3.379   5.940   4.739 -0.4399 -1.8090  0.8505
   56DOPC   H5Y 7690   3.395   5.778   4.798  0.0971 -0.4024 -0.9523
   56DOPC   C36 7691   3.537   5.826   4.653  0.2997  0.0060 -0.3920
   56DOPC   H6X 7692   3.593   5.912   4.611 -2.3795  1.2708 -1.6576
   56DOPC   H6Y 7693   3.607   5.751   4.696  0.6064  0.5346  0.0438
   56DOPC   C37 7694   3.450   5.754   4.550  0.8168 -0.0969 -0.0278
   56DOPC   H7X 7695   3.411   5.660   4.596  0.8233  0.3340  0.8723
   56DOPC   H7Y 7696   3.357   5.811   4.525  1.3958  0.8574 -0.0340
   56DOPC   C38 7697   3.528   5.719   4.422 -1.2212  0.7881  0.4987
   56DOPC   H8X 7698   3.569   5.811   4.375  1.7542 -0.5556  0.2234
   56DOPC   H8Y 7699   3.460   5.671   4.348  0.6514 -1.4845  0.1138
   56DOPC   C39 7700   3.645   5.628   4.445 -0.1695 -0.0660  0.0357
   56DOPC   H9X 7701   3.730   5.684   4.485 -0.7541  2.3890 -1.8906
   56DOPC  C310 7702   3.666   5.512   4.387  0.0680  0.2116  0.8359
   56DOPC  H10X 7703   3.769   5.474   4.386 -0.2144 -0.7176 -2.0109
   56DOPC  C311 7704   3.572   5.423   4.310 -0.1257 -0.5953 -0.7372
   56DOPC  H11X 7705   3.472   5.472   4.317 -0.1917 -0.9345  1.0140
   56DOPC  H11Y 7706   3.558   5.327   4.363 -3.0878 -1.0490 -2.1472
   56DOPC  C312 7707   3.608   5.402   4.159 -0.2581  0.2098  0.7783
   56DOPC  H12X 7708   3.713   5.375   4.136 -0.5610 -0.0130 -0.3931
   56DOPC  H12Y 7709   3.589   5.494   4.101 -0.8645 -0.0795  0.5090
   56DOPC  C313 7710   3.532   5.290   4.084  0.0324  0.2317  0.2651
   56DOPC  H13X 7711   3.543   5.204   4.152 -3.0353 -0.0036  0.6112
   56DOPC  H13Y 7712   3.424   5.318   4.082 -0.9521 -2.9676  2.1653
   56DOPC  C314 7713   3.589   5.266   3.941  0.6898  0.4299  0.5249
   56DOPC  H14X 7714   3.516   5.202   3.887  3.0365 -2.8849  1.0224
   56DOPC  H14Y 7715   3.599   5.367   3.894  0.1434  0.7529  1.0812
   56DOPC  C315 7716   3.726   5.197   3.936  0.7545 -0.7433  0.5669
   56DOPC  H15X 7717   3.802   5.247   3.999 -0.3779  1.6523  0.1418
   56DOPC  H15Y 7718   3.772   5.191   3.835 -0.3107 -2.0091  0.1205
   56DOPC  C316 7719   3.742   5.051   3.989 -0.7483 -0.1524 -0.3631
   56DOPC  H16X 7720   3.741   5.035   4.099 -1.2070 -0.4686 -0.4069
   56DOPC  H16Y 7721   3.657   4.991   3.948  0.5377 -0.8240 -2.1879
   56DOPC  C317 7722   3.868   4.987   3.937 -0.6417  0.7630 -0.3010
   56DOPC  H17X 7723   3.961   5.048   3.948  1.2558 -1.3074 -3.3713
   56DOPC  H17Y 7724   3.862   4.897   4.002 -0.4365  1.7039  1.0838
   56DOPC  C318 7725   3.851   4.926   3.793 -0.3129  0.0844 -0.5232
   56DOPC  H18X 7726   3.878   5.011   3.727  3.6236 -0.4668  0.1176
   56DOPC  H18Y 7727   3.932   4.851   3.777  0.5935  0.5380  1.5871
   56DOPC  H18Z 7728   3.750   4.881   3.787 -0.0404 -0.4390 -1.4199
   57DOPC     N 7729   3.847   6.271   5.853 -0.8769  0.3236  0.3635
   57DOPC   C12 7730   3.907   6.408   5.792 -0.3450  0.0135  0.6112
   57DOPC  H12A 7731   3.998   6.393   5.735 -1.6170  1.5472 -1.9961
   57DOPC  H12B 7732   3.929   6.467   5.879  3.4857 -0.1407 -0.0686
   57DOPC   C13 7733   3.734   6.308   5.944  0.6336  0.3864  0.0948
   57DOPC  H13A 7734   3.679   6.219   5.969  1.4105 -0.6276 -1.6654
   57DOPC  H13B 7735   3.750   6.376   6.026  0.1505 -0.3846  0.8324
   57DOPC  H13C 7736   3.662   6.364   5.886  0.4831  0.2460  0.1446
   57DOPC   C14 7737   3.961   6.201   5.921  0.1622  0.1579  0.1199
   57DOPC  H14A 7738   4.005   6.274   5.988 -1.2993  0.9576  0.2474
   57DOPC  H14B 7739   3.929   6.115   5.978 -2.0815  0.9163  0.1250
   57DOPC  H14C 7740   4.038   6.168   5.853 -1.2422 -1.8108 -0.6004
   57DOPC   C15 7741   3.803   6.187   5.734 -0.6115 -0.2080  0.5595
   57DOPC  H15A 7742   3.754   6.245   5.657 -0.5925 -1.8608 -0.7726
   57DOPC  H15B 7743   3.744   6.104   5.768  1.1263 -1.8583 -0.2155
   57DOPC  H15C 7744   3.891   6.145   5.687 -0.5750 -0.8528  1.1889
   57DOPC   C11 7745   3.810   6.485   5.692 -0.2476 -0.3159  0.6987
   57DOPC  H11A 7746   3.880   6.567   5.665  1.3226 -1.1546  2.0856
   57DOPC  H11B 7747   3.809   6.417   5.604  0.8549 -2.3418  2.1812
   57DOPC     P 7748   3.617   6.651   5.708  0.3756  0.2951 -0.3224
   57DOPC   O13 7749   3.715   6.752   5.742 -0.7949 -0.6920  0.0222
   57DOPC   O14 7750   3.478   6.652   5.772 -0.3481 -0.2041 -0.2187
   57DOPC   O12 7751   3.684   6.512   5.748 -0.4275 -0.5804 -0.2349
   57DOPC   O11 7752   3.607   6.639   5.553  0.2803  0.2967 -0.8198
   57DOPC    C1 7753   3.543   6.519   5.500 -0.6408 -0.4804  0.7289
   57DOPC    HA 7754   3.434   6.534   5.485 -1.0722 -2.7493  1.1835
   57DOPC    HB 7755   3.558   6.426   5.560  0.9334 -1.8304 -1.6007
   57DOPC    C2 7756   3.604   6.499   5.358 -0.3200 -0.6106 -0.4083
   57DOPC    HS 7757   3.714   6.515   5.359  0.0066 -2.5544  0.6358
   57DOPC   O21 7758   3.538   6.581   5.261 -0.6230  0.0663  0.3557
   57DOPC   C21 7759   3.610   6.641   5.174 -0.3952 -0.5274 -0.0520
   57DOPC   O22 7760   3.732   6.669   5.186  0.1318  0.4542 -0.3753
   57DOPC   C22 7761   3.522   6.686   5.055  0.0073  0.0111 -0.1266
   57DOPC   H2R 7762   3.431   6.736   5.096  1.0609 -0.5635  3.1562
   57DOPC   H2S 7763   3.495   6.599   4.990 -0.9022  0.1243  0.0883
   57DOPC    C3 7764   3.587   6.344   5.322 -0.0668  0.0280  0.1719
   57DOPC    HX 7765   3.477   6.325   5.319  0.2769 -2.2059 -0.1591
   57DOPC    HY 7766   3.631   6.274   5.397  1.3450  1.9362  1.1903
   57DOPC   O31 7767   3.653   6.314   5.203 -0.0311  0.0818  0.4289
   57DOPC   C31 7768   3.781   6.280   5.212  0.5284  0.2636  0.6083
   57DOPC   O32 7769   3.836   6.250   5.316  0.2981 -0.5270  0.1817
   57DOPC   C32 7770   3.841   6.308   5.077  0.0033 -0.1409  0.4029
   57DOPC   H2X 7771   3.824   6.418   5.076  1.1964  0.0705  1.1394
   57DOPC   H2Y 7772   3.951   6.298   5.067 -0.1489 -2.7397  0.8139
   57DOPC   C23 7773   3.585   6.791   4.958 -0.6148  0.3654 -0.3571
   57DOPC   H3R 7774   3.639   6.732   4.881 -2.5443  0.8318 -2.1638
   57DOPC   H3S 7775   3.660   6.851   5.012 -0.6932 -1.0978  1.4750
   57DOPC   C24 7776   3.477   6.874   4.894  0.8614  0.1091 -0.6271
   57DOPC   H4R 7777   3.424   6.931   4.973 -1.1500 -0.8628 -1.2062
   57DOPC   H4S 7778   3.406   6.808   4.839  1.2307 -1.1753  0.3775
   57DOPC   C25 7779   3.537   6.973   4.805 -0.3264 -0.1034  0.0344
   57DOPC   H5R 7780   3.625   6.938   4.747 -0.1052  1.9864 -0.9787
   57DOPC   H5S 7781   3.589   7.047   4.870 -2.1737  3.0121 -1.7584
   57DOPC   C26 7782   3.440   7.051   4.708  0.0473  0.2288  0.5508
   57DOPC   H6R 7783   3.433   7.158   4.739  3.0155  1.5315 -2.6731
   57DOPC   H6S 7784   3.334   7.017   4.706  0.7506 -2.1273 -1.8735
   57DOPC   C27 7785   3.493   7.056   4.567 -0.3789  1.0861  0.4170
   57DOPC   H7R 7786   3.471   6.959   4.517 -0.7601  0.5186  1.6443
   57DOPC   H7S 7787   3.602   7.073   4.562 -0.2361  0.0466 -0.7850
   57DOPC   C28 7788   3.439   7.181   4.494 -0.0494  0.1085  0.0562
   57DOPC   H8R 7789   3.476   7.274   4.541 -0.3295  1.5102 -2.3050
   57DOPC   H8S 7790   3.328   7.191   4.485 -0.0189  3.6419  2.1027
   57DOPC   C29 7791   3.498   7.176   4.356 -0.0603 -0.6648  0.0292
   57DOPC   H9R 7792   3.596   7.226   4.360 -0.6785  0.6103 -0.0851
   57DOPC  C210 7793   3.455   7.111   4.247  0.3045 -0.0409  0.4323
   57DOPC  H10R 7794   3.511   7.098   4.154  0.7519  1.6792  0.4211
   57DOPC  C211 7795   3.332   7.029   4.238  0.3811 -0.3233  0.1174
   57DOPC  H11R 7796   3.288   7.007   4.337  1.4228  0.8822  0.8793
   57DOPC  H11S 7797   3.358   6.942   4.173  1.7664 -0.9926  1.4874
   57DOPC  C212 7798   3.210   7.099   4.170  0.5808  0.3705 -0.5380
   57DOPC  H12R 7799   3.192   7.190   4.231  1.4956  0.9951 -1.1701
   57DOPC  H12S 7800   3.117   7.039   4.173  0.4559  0.5252 -1.0448
   57DOPC  C213 7801   3.226   7.153   4.023 -0.1940 -0.3753 -0.0222
   57DOPC  H13R 7802   3.250   7.061   3.966  1.0931 -0.3165  0.3887
   57DOPC  H13S 7803   3.305   7.231   4.024 -1.9846  1.5363  0.6528
   57DOPC  C214 7804   3.104   7.225   3.966 -0.2102  0.3329 -0.5537
   57DOPC  H14R 7805   3.082   7.310   4.034 -1.9165  0.0137 -0.6618
   57DOPC  H14S 7806   3.011   7.164   3.966 -0.5367  0.8213 -0.6462
   57DOPC  C215 7807   3.135   7.260   3.821 -0.9456  0.4261 -0.0833
   57DOPC  H15R 7808   3.153   7.160   3.776  0.3552  0.5808  0.0584
   57DOPC  H15S 7809   3.230   7.315   3.806 -0.6637 -0.4812 -1.9769
   57DOPC  C216 7810   3.031   7.342   3.753  0.0627  0.7835  0.1262
   57DOPC  H16R 7811   3.009   7.438   3.805  1.5490  0.0801  2.1754
   57DOPC  H16S 7812   2.945   7.273   3.747  0.7104  0.0894 -1.8719
   57DOPC  C217 7813   3.073   7.387   3.613  0.2440 -0.2470  0.0545
   57DOPC  H17R 7814   3.095   7.292   3.559  0.3525  0.6057 -1.4611
   57DOPC  H17S 7815   3.166   7.448   3.612  1.5066 -2.0747  0.5127
   57DOPC  C218 7816   2.964   7.459   3.524 -0.0435 -0.0042  0.5262
   57DOPC  H18R 7817   2.962   7.561   3.567  3.1209  0.3143  0.1774
   57DOPC  H18S 7818   2.867   7.406   3.530 -1.9932  3.2948  0.2736
   57DOPC  H18T 7819   2.996   7.471   3.418  1.1875  0.2053  0.9078
   57DOPC   C33 7820   3.789   6.209   4.966 -0.2127  0.9477 -0.3197
   57DOPC   H3X 7821   3.680   6.187   4.961  0.1876 -0.9742 -3.6813
   57DOPC   H3Y 7822   3.838   6.109   4.970 -0.5266  0.7729 -0.7720
   57DOPC   C34 7823   3.826   6.282   4.839  0.1372 -0.4593 -0.0068
   57DOPC   H4X 7824   3.936   6.293   4.831  0.3933 -1.9266  0.9787
   57DOPC   H4Y 7825   3.786   6.384   4.858  0.1544 -0.5947  0.7915
   57DOPC   C35 7826   3.766   6.206   4.717 -0.3907  0.6583 -0.6915
   57DOPC   H5X 7827   3.657   6.193   4.734 -0.5106  0.9651 -1.2094
   57DOPC   H5Y 7828   3.811   6.105   4.710 -1.5544 -0.0005  0.7027
   57DOPC   C36 7829   3.775   6.275   4.582 -0.3998 -0.6776  0.2924
   57DOPC   H6X 7830   3.720   6.371   4.596 -0.0270 -0.5992  1.2955
   57DOPC   H6Y 7831   3.878   6.308   4.555 -0.6688  0.2409  0.3332
   57DOPC   C37 7832   3.713   6.184   4.477 -0.0113 -0.9102  0.6175
   57DOPC   H7X 7833   3.628   6.133   4.526  0.0780 -1.4073  0.2724
   57DOPC   H7Y 7834   3.671   6.260   4.409 -1.3287 -0.4960  1.8598
   57DOPC   C38 7835   3.798   6.077   4.403 -0.2281 -0.6818  0.2810
   57DOPC   H8X 7836   3.828   6.004   4.482  0.2711  0.8785  1.5988
   57DOPC   H8Y 7837   3.882   6.142   4.370 -0.5887 -0.6082 -0.4966
   57DOPC   C39 7838   3.736   6.014   4.281 -0.1430  0.7632 -0.0905
   57DOPC   H9X 7839   3.626   6.016   4.277 -0.2608 -2.3173 -1.6707
   57DOPC  C310 7840   3.796   5.975   4.167  0.1348 -0.9393 -0.3542
   57DOPC  H10X 7841   3.732   5.942   4.084 -0.0934  0.0917 -0.6060
   57DOPC  C311 7842   3.943   5.995   4.148  0.1451  0.0909 -0.1460
   57DOPC  H11X 7843   3.987   5.998   4.250  1.8253  1.1742 -0.8529
   57DOPC  H11Y 7844   3.958   6.101   4.116  0.0721 -0.2389 -1.3185
   57DOPC  C312 7845   4.033   5.897   4.078 -0.6522  0.0580  0.2520
   57DOPC  H12X 7846   4.141   5.914   4.096  0.3405 -0.4315 -4.0854
   57DOPC  H12Y 7847   4.019   5.932   3.974 -2.1361 -0.6286  0.1857
   57DOPC  C313 7848   3.988   5.744   4.091  0.5310 -0.1604  0.3568
   57DOPC  H13X 7849   3.961   5.722   4.196  0.1727 -0.6672  0.1599
   57DOPC  H13Y 7850   3.891   5.734   4.037  0.9452 -1.8478 -0.1319
   57DOPC  C314 7851   4.085   5.657   4.018  0.1518  0.0497 -0.3097
   57DOPC  H14X 7852   4.083   5.689   3.912 -0.7248 -1.4903 -0.7851
   57DOPC  H14Y 7853   4.191   5.671   4.050 -0.5927  0.8731  1.9833
   57DOPC  C315 7854   4.046   5.510   4.013 -0.0405 -0.2157 -0.0937
   57DOPC  H15X 7855   3.937   5.494   4.006 -0.0826  0.4332 -1.1198
   57DOPC  H15Y 7856   4.074   5.474   4.114 -0.8217  1.1028  0.6244
   57DOPC  C316 7857   4.128   5.441   3.908 -0.3120  0.4534  0.7302
   57DOPC  H16X 7858   4.088   5.460   3.806  0.4783 -0.7683  0.1707
   57DOPC  H16Y 7859   4.232   5.479   3.908  0.1861 -0.8617  0.6775
   57DOPC  C317 7860   4.127   5.290   3.930  0.0768  0.4622 -0.7437
   57DOPC  H17X 7861   4.024   5.252   3.949 -0.0411  0.1862 -1.8614
   57DOPC  H17Y 7862   4.169   5.243   3.839  1.4254 -2.7012  1.2999
   57DOPC  C318 7863   4.209   5.247   4.050 -0.0498  0.3031  0.0329
   57DOPC  H18X 7864   4.314   5.233   4.015 -0.1490  1.8386 -0.9922
   57DOPC  H18Y 7865   4.214   5.326   4.128 -0.0280  0.2702  0.0650
   57DOPC  H18Z 7866   4.174   5.146   4.079  0.0871  0.6497  1.4666
   58DOPC     N 7867   6.024   6.621   6.163 -0.5539 -0.7205 -0.1292
   58DOPC   C12 7868   5.997   6.724   6.056 -0.4024  0.4603 -0.1552
   58DOPC  H12A 7869   5.970   6.661   5.973 -0.6686 -1.0119  1.0036
   58DOPC  H12B 7870   6.088   6.778   6.037  0.4373 -1.1889 -0.9306
   58DOPC   C13 7871   5.915   6.524   6.149  0.4421  0.1339 -0.5799
   58DOPC  H13A 7872   5.817   6.571   6.150  0.0315 -0.5247 -2.9336
   58DOPC  H13B 7873   5.923   6.472   6.054  1.6268 -0.5129 -0.1390
   58DOPC  H13C 7874   5.921   6.451   6.228 -1.5457  1.7300  1.1504
   58DOPC   C14 7875   6.020   6.674   6.304 -0.5545 -0.2623 -0.0721
   58DOPC  H14A 7876   5.919   6.701   6.332 -2.0855 -0.4359 -4.5658
   58DOPC  H14B 7877   6.057   6.590   6.361  0.2788 -0.7539 -1.2923
   58DOPC  H14C 7878   6.095   6.751   6.316  1.1500 -1.8294 -0.1794
   58DOPC   C15 7879   6.155   6.536   6.145 -0.7394 -0.3966 -0.3805
   58DOPC  H15A 7880   6.241   6.594   6.175 -0.8198 -0.2905 -0.3533
   58DOPC  H15B 7881   6.161   6.519   6.038 -0.4233  1.7001 -0.7585
   58DOPC  H15C 7882   6.159   6.452   6.212  0.9293  0.8399  1.1479
   58DOPC   C11 7883   5.866   6.819   6.071 -0.5946  0.3772 -0.2433
   58DOPC  H11A 7884   5.865   6.865   6.172  2.1986 -1.1878  0.6275
   58DOPC  H11B 7885   5.881   6.905   6.003 -3.9969  0.9960 -0.3679
   58DOPC     P 7886   5.689   6.723   5.906  0.1198 -0.3250 -0.2257
   58DOPC   O13 7887   5.548   6.759   5.918 -0.1361  0.3098  0.0928
   58DOPC   O14 7888   5.725   6.588   5.858  0.7654  0.5754  0.1930
   58DOPC   O12 7889   5.745   6.748   6.048  0.1903  0.1742  0.3005
   58DOPC   O11 7890   5.764   6.829   5.810  0.3727 -0.2218 -0.6161
   58DOPC    C1 7891   5.720   6.864   5.686  0.1943 -0.5752 -0.3598
   58DOPC    HA 7892   5.697   6.972   5.689 -1.5740 -0.9097 -0.8067
   58DOPC    HB 7893   5.621   6.823   5.656  0.3850 -0.3450 -1.3473
   58DOPC    C2 7894   5.824   6.835   5.580  0.1831  0.1462  0.5343
   58DOPC    HS 7895   5.793   6.884   5.485  0.5032  0.5085  0.6180
   58DOPC   O21 7896   5.839   6.695   5.554 -0.0131  0.2795  0.1896
   58DOPC   C21 7897   5.740   6.632   5.495 -0.1274  0.1186 -0.7686
   58DOPC   O22 7898   5.643   6.687   5.443 -0.2886 -0.4973  0.3116
   58DOPC   C22 7899   5.761   6.479   5.508 -0.2842  0.6002 -0.4586
   58DOPC   H2R 7900   5.690   6.449   5.588 -0.8924  0.8587 -0.8888
   58DOPC   H2S 7901   5.865   6.443   5.526  0.0701  1.0732 -1.4779
   58DOPC    C3 7902   5.960   6.901   5.608  0.2614 -0.5593 -0.0083
   58DOPC    HX 7903   5.995   6.881   5.712  0.0709 -0.3461  0.0984
   58DOPC    HY 7904   5.934   7.009   5.602  1.3694 -0.2607  0.4141
   58DOPC   O31 7905   6.060   6.867   5.510 -0.4762  0.0056  0.0140
   58DOPC   C31 7906   6.130   6.757   5.536  0.4398 -0.2309  0.0811
   58DOPC   O32 7907   6.136   6.702   5.644  0.7227  0.2323  0.3893
   58DOPC   C32 7908   6.193   6.719   5.412  0.0931 -0.6161 -0.0433
   58DOPC   H2X 7909   6.256   6.807   5.386 -0.1608  0.2710  2.1326
   58DOPC   H2Y 7910   6.245   6.621   5.422  1.1884 -0.2883 -2.0418
   58DOPC   C23 7911   5.709   6.409   5.378  0.3564 -0.3393 -0.2625
   58DOPC   H3R 7912   5.748   6.472   5.295 -1.5080 -1.5124 -2.1395
   58DOPC   H3S 7913   5.600   6.430   5.376  0.6694  1.3699 -1.3515
   58DOPC   C24 7914   5.751   6.264   5.367  0.0279  0.4687  0.2188
   58DOPC   H4R 7915   5.664   6.201   5.397 -0.3467  0.5236 -0.7339
   58DOPC   H4S 7916   5.823   6.230   5.444 -0.2897 -0.3268  0.1716
   58DOPC   C25 7917   5.810   6.227   5.230  0.3432 -0.1122 -0.6358
   58DOPC   H5R 7918   5.916   6.256   5.212 -0.0018  0.4093 -1.9399
   58DOPC   H5S 7919   5.754   6.277   5.148 -0.0539 -0.4604 -0.5778
   58DOPC   C26 7920   5.807   6.075   5.207  0.1772  0.4676 -0.3250
   58DOPC   H6R 7921   5.705   6.035   5.193 -0.6114  2.9055 -2.3793
   58DOPC   H6S 7922   5.859   6.016   5.286  1.1712 -0.2629 -1.4793
   58DOPC   C27 7923   5.877   6.038   5.071  0.6219 -0.3262 -0.4213
   58DOPC   H7R 7924   5.866   5.929   5.052 -0.8909  0.2908 -3.6529
   58DOPC   H7S 7925   5.982   6.068   5.091  0.7553 -0.5975 -0.7171
   58DOPC   C28 7926   5.829   6.119   4.948  0.0875  0.5997 -0.2794
   58DOPC   H8R 7927   5.863   6.224   4.949  0.1735  0.5957 -1.2259
   58DOPC   H8S 7928   5.718   6.118   4.943  0.0894  0.4153 -0.2913
   58DOPC   C29 7929   5.881   6.055   4.825 -0.3159 -0.1271  0.1926
   58DOPC   H9R 7930   5.987   6.074   4.801 -0.4367  3.1070  1.6218
   58DOPC  C210 7931   5.810   5.990   4.730 -0.5537  0.2531 -0.2085
   58DOPC  H10R 7932   5.862   5.927   4.656  1.9491  1.0655  0.7501
   58DOPC  C211 7933   5.660   5.990   4.728  0.1560 -0.5161 -0.4564
   58DOPC  H11R 7934   5.623   6.091   4.702  2.9222  0.9122  0.6993
   58DOPC  H11S 7935   5.620   5.970   4.830 -0.6245  3.7879  0.2804
   58DOPC  C212 7936   5.589   5.902   4.616 -0.3366 -0.1107 -0.2982
   58DOPC  H12R 7937   5.605   5.795   4.641  1.3941 -0.1071 -1.2185
   58DOPC  H12S 7938   5.631   5.918   4.514 -3.0313 -0.5724 -1.5672
   58DOPC  C213 7939   5.437   5.936   4.595 -0.1350 -0.2545 -0.6429
   58DOPC  H13R 7940   5.424   6.045   4.575  3.1851  0.3748  0.0882
   58DOPC  H13S 7941   5.389   5.910   4.691  2.1450  0.8741  0.8760
   58DOPC  C214 7942   5.364   5.841   4.494 -0.4368 -0.5197 -0.6207
   58DOPC  H14R 7943   5.255   5.862   4.480 -0.3923 -0.5359 -0.9998
   58DOPC  H14S 7944   5.363   5.733   4.518  1.4859 -0.3192  0.5142
   58DOPC  C215 7945   5.427   5.854   4.353  0.1845  0.4398  0.5638
   58DOPC  H15R 7946   5.380   5.776   4.290 -0.2548 -0.0944  1.5366
   58DOPC  H15S 7947   5.534   5.828   4.373  0.2402  0.9452  0.9722
   58DOPC  C216 7948   5.415   5.989   4.279 -0.7975  0.1957 -0.0007
   58DOPC  H16R 7949   5.431   6.074   4.348  0.6323 -0.7934  0.9370
   58DOPC  H16S 7950   5.312   5.992   4.236  0.0707 -3.5716 -2.9043
   58DOPC  C217 7951   5.500   6.012   4.155  0.0650  0.1854 -0.0329
   58DOPC  H17R 7952   5.497   5.919   4.095  1.6044 -0.4416  0.7843
   58DOPC  H17S 7953   5.610   6.017   4.170  0.0679  0.1385 -0.0398
   58DOPC  C218 7954   5.451   6.135   4.075  0.3991  0.0899 -0.3285
   58DOPC  H18R 7955   5.449   6.231   4.132 -0.1959  0.2431 -0.5987
   58DOPC  H18S 7956   5.347   6.111   4.045 -0.8061 -0.8195  3.8892
   58DOPC  H18T 7957   5.520   6.147   3.989  0.1451 -2.8569 -1.0472
   58DOPC   C33 7958   6.093   6.698   5.293 -0.3019  0.1344 -0.4177
   58DOPC   H3X 7959   6.015   6.778   5.299 -0.6093 -0.2773  2.0687
   58DOPC   H3Y 7960   6.029   6.609   5.313 -2.2162  1.1846 -1.5458
   58DOPC   C34 7961   6.165   6.665   5.159  0.7262 -0.1413  0.2766
   58DOPC   H4X 7962   6.250   6.595   5.175  0.3622 -1.1128 -1.7426
   58DOPC   H4Y 7963   6.196   6.758   5.109 -1.2087  0.0368 -0.6856
   58DOPC   C35 7964   6.068   6.588   5.073  0.4219  0.6752  0.7127
   58DOPC   H5X 7965   5.970   6.640   5.064  0.6608  0.8557 -1.3080
   58DOPC   H5Y 7966   6.035   6.493   5.122  0.5790  0.7883  1.0400
   58DOPC   C36 7967   6.126   6.548   4.947  0.1705  0.1866  0.3653
   58DOPC   H6X 7968   6.148   6.640   4.888 -1.6799  1.6101  1.7534
   58DOPC   H6Y 7969   6.224   6.502   4.970  0.6926  1.8857  1.7174
   58DOPC   C37 7970   6.038   6.455   4.863 -0.1197  0.2447 -0.0595
   58DOPC   H7X 7971   6.100   6.420   4.778 -0.1977  0.6257 -0.2705
   58DOPC   H7Y 7972   6.022   6.356   4.912 -0.1223 -0.6639 -1.8040
   58DOPC   C38 7973   5.905   6.494   4.809  0.6040  0.2578 -0.3090
   58DOPC   H8X 7974   5.834   6.484   4.893  0.6613  0.6381 -0.2130
   58DOPC   H8Y 7975   5.877   6.427   4.725  1.6220 -0.6039  0.0308
   58DOPC   C39 7976   5.910   6.637   4.765 -0.2648  0.3676  0.2056
   58DOPC   H9X 7977   5.914   6.719   4.838  0.5088  0.9347 -0.4471
   58DOPC  C310 7978   5.929   6.684   4.638  0.1203 -0.0248 -0.2206
   58DOPC  H10X 7979   5.937   6.790   4.610 -0.5949  0.5021  1.4373
   58DOPC  C311 7980   5.968   6.601   4.521  0.4284 -0.1324  0.9867
   58DOPC  H11X 7981   5.881   6.586   4.454  1.4009 -1.0587 -0.1287
   58DOPC  H11Y 7982   6.006   6.504   4.561  2.0126  0.8945  2.1179
   58DOPC  C312 7983   6.084   6.648   4.430  0.1341 -0.1754  0.5159
   58DOPC  H12X 7984   6.138   6.581   4.360 -1.0082  0.6827 -1.2609
   58DOPC  H12Y 7985   6.171   6.691   4.485  0.5715 -0.0052 -0.2970
   58DOPC  C313 7986   6.044   6.769   4.337  0.4144 -0.3335 -0.3013
   58DOPC  H13X 7987   5.975   6.837   4.392 -1.1301 -1.6668 -0.5441
   58DOPC  H13Y 7988   6.131   6.832   4.307 -0.6008  1.0622 -0.4210
   58DOPC  C314 7989   5.977   6.729   4.206 -0.5161 -0.5634 -0.7362
   58DOPC  H14X 7990   5.886   6.665   4.211 -1.6486  0.6193 -3.9192
   58DOPC  H14Y 7991   5.948   6.828   4.165  0.2778 -0.1218 -0.2589
   58DOPC  C315 7992   6.072   6.660   4.104 -0.1000  0.1111 -0.2193
   58DOPC  H15X 7993   6.113   6.567   4.149  1.7779  1.7164  1.6154
   58DOPC  H15Y 7994   6.157   6.730   4.088 -0.9730  1.0347 -0.9896
   58DOPC  C316 7995   5.998   6.626   3.969 -0.3190  0.4024  0.0901
   58DOPC  H16X 7996   5.947   6.715   3.926 -0.2889 -0.4606 -1.8405
   58DOPC  H16Y 7997   6.072   6.592   3.894 -1.7164 -1.4208 -0.5312
   58DOPC  C317 7998   5.904   6.502   3.989  0.6509  0.2513  0.1414
   58DOPC  H17X 7999   5.917   6.471   4.095 -0.0822 -1.0409 -0.1261
   58DOPC  H17Y 8000   5.938   6.420   3.922  1.5734  0.7951 -0.0771
   58DOPC  C318 8001   5.757   6.525   3.951  0.3883 -0.0265 -0.2222
   58DOPC  H18X 8002   5.721   6.622   3.990  0.4341 -0.2073  0.2758
   58DOPC  H18Y 8003   5.762   6.523   3.840  0.8554 -0.0057 -0.2052
   58DOPC  H18Z 8004   5.694   6.438   3.978 -0.6701  0.4933 -0.9843
   59DOPC     N 8005   5.539   0.502   5.999  0.1754  0.2054  0.1113
   59DOPC   C12 8006   5.441   0.485   5.884  0.0172  0.0995 -0.6841
   59DOPC  H12A 8007   5.344   0.496   5.930 -0.5669 -2.2055 -1.2488
   59DOPC  H12B 8008   5.460   0.383   5.853 -0.9335  0.1241 -1.3798
   59DOPC   C13 8009   5.516   0.400   6.108 -0.1409 -0.4201 -1.4539
   59DOPC  H13A 8010   5.463   0.312   6.074  0.3821 -1.4053  0.1263
   59DOPC  H13B 8011   5.610   0.368   6.150 -0.4029 -0.2722 -0.7219
   59DOPC  H13C 8012   5.466   0.447   6.192  0.1520 -0.0546 -1.4839
   59DOPC   C14 8013   5.524   0.638   6.057  0.5181  0.1316  0.0435
   59DOPC  H14A 8014   5.608   0.663   6.120  0.0424  0.5621  0.5184
   59DOPC  H14B 8015   5.526   0.717   5.983 -2.1654  0.4454  0.1902
   59DOPC  H14C 8016   5.428   0.659   6.102 -0.2393 -0.8426 -1.0579
   59DOPC   C15 8017   5.673   0.485   5.942 -0.0212  0.0993  1.1992
   59DOPC  H15A 8018   5.694   0.562   5.870 -0.3556  0.5421  1.5723
   59DOPC  H15B 8019   5.688   0.388   5.896  0.1944  0.9541 -0.6214
   59DOPC  H15C 8020   5.746   0.488   6.022  1.5108 -2.2520  0.0194
   59DOPC   C11 8021   5.456   0.562   5.752  0.3852  0.2898  0.3647
   59DOPC  H11A 8022   5.558   0.540   5.714 -0.2051  1.8464 -2.4256
   59DOPC  H11B 8023   5.383   0.526   5.677  1.4534  2.4691 -1.8884
   59DOPC     P 8024   5.305   0.768   5.783 -0.0658 -0.4278 -0.4073
   59DOPC   O13 8025   5.333   0.910   5.802 -0.4920 -0.3546 -0.5115
   59DOPC   O14 8026   5.219   0.708   5.889 -0.3664  0.7293  0.1714
   59DOPC   O12 8027   5.444   0.701   5.778 -0.1811 -0.6318  0.1855
   59DOPC   O11 8028   5.238   0.745   5.641  0.2380  0.0514  0.0075
   59DOPC    C1 8029   5.288   0.771   5.513 -0.1562  0.8432  0.1669
   59DOPC    HA 8030   5.325   0.678   5.464  2.4458  1.5333  0.6623
   59DOPC    HB 8031   5.375   0.840   5.515  0.8298 -0.3725  0.3768
   59DOPC    C2 8032   5.166   0.841   5.443  0.1218  1.2525  0.8178
   59DOPC    HS 8033   5.147   0.940   5.489  0.5561  1.6905  0.0800
   59DOPC   O21 8034   5.052   0.749   5.455  0.1314 -0.4010 -0.2092
   59DOPC   C21 8035   4.950   0.789   5.528  0.1997 -0.5198 -0.0059
   59DOPC   O22 8036   4.917   0.905   5.554  0.5583  0.3985 -0.1867
   59DOPC   C22 8037   4.863   0.666   5.565 -0.0507 -0.1708 -0.3483
   59DOPC   H2R 8038   4.879   0.653   5.674  1.7296  0.8832 -0.4402
   59DOPC   H2S 8039   4.908   0.573   5.524 -2.0595 -1.7911  0.9544
   59DOPC    C3 8040   5.194   0.875   5.297  0.5465  0.0685 -0.3497
   59DOPC    HX 8041   5.213   0.785   5.235  2.3242  0.9212 -1.0921
   59DOPC    HY 8042   5.279   0.943   5.275  0.1086  0.7477  0.0181
   59DOPC   O31 8043   5.076   0.918   5.229  0.0728 -1.0228 -0.6574
   59DOPC   C31 8044   5.043   1.043   5.262  0.3422 -0.0934  0.2374
   59DOPC   O32 8045   5.111   1.120   5.325  0.0469 -0.2296 -0.3784
   59DOPC   C32 8046   4.907   1.083   5.211 -0.0502 -0.4587  0.5118
   59DOPC   H2X 8047   4.858   0.988   5.180  1.8577 -1.4242  0.3088
   59DOPC   H2Y 8048   4.852   1.135   5.293  1.6472  2.7553 -0.2321
   59DOPC   C23 8049   4.720   0.687   5.519 -0.3557 -0.2450 -0.0930
   59DOPC   H3R 8050   4.683   0.786   5.552 -0.5261 -0.7682  1.3756
   59DOPC   H3S 8051   4.665   0.622   5.590 -0.8807  0.7464  0.4345
   59DOPC   C24 8052   4.687   0.638   5.384  0.7890 -0.4950  1.4528
   59DOPC   H4R 8053   4.578   0.649   5.368  1.1817 -0.0220 -1.4033
   59DOPC   H4S 8054   4.709   0.530   5.365 -1.3740 -0.4749 -2.0010
   59DOPC   C25 8055   4.755   0.726   5.271 -0.4278 -1.2027 -0.7501
   59DOPC   H5R 8056   4.865   0.712   5.280 -0.1480  1.1485  0.2042
   59DOPC   H5S 8057   4.720   0.830   5.292  0.2841 -1.0023 -0.5057
   59DOPC   C26 8058   4.720   0.691   5.130 -0.2068  0.2527 -0.5075
   59DOPC   H6R 8059   4.610   0.709   5.122 -0.1006  2.5196  1.5865
   59DOPC   H6S 8060   4.733   0.584   5.103 -1.5729  0.0039 -0.2689
   59DOPC   C27 8061   4.792   0.780   5.029 -0.0200  0.8854 -1.0389
   59DOPC   H7R 8062   4.895   0.789   5.070 -0.0914 -0.9074 -0.3687
   59DOPC   H7S 8063   4.745   0.880   5.027  1.9644  1.8697 -1.2704
   59DOPC   C28 8064   4.781   0.757   4.884 -0.4018  0.2911 -0.6440
   59DOPC   H8R 8065   4.816   0.854   4.841  1.1495  0.2310  0.4055
   59DOPC   H8S 8066   4.674   0.744   4.858  0.0658 -1.9062 -1.6595
   59DOPC   C29 8067   4.859   0.646   4.828  0.4889 -0.1552 -0.2909
   59DOPC   H9R 8068   4.969   0.655   4.837  0.7127 -0.1405 -2.4411
   59DOPC  C210 8069   4.807   0.539   4.769 -0.8831 -0.1536  0.4524
   59DOPC  H10R 8070   4.882   0.470   4.725 -0.4440  0.5422  0.0983
   59DOPC  C211 8071   4.675   0.510   4.732 -0.3002 -0.2815 -0.1046
   59DOPC  H11R 8072   4.611   0.558   4.808 -2.4354 -2.0628 -0.6747
   59DOPC  H11S 8073   4.656   0.401   4.748 -3.6724  0.3996  1.3943
   59DOPC  C212 8074   4.629   0.539   4.587  0.0965 -0.4760 -0.0807
   59DOPC  H12R 8075   4.628   0.649   4.569 -1.0837 -0.1253  1.8751
   59DOPC  H12S 8076   4.528   0.498   4.569  0.3221 -0.0704 -2.6385
   59DOPC  C213 8077   4.710   0.469   4.471  0.0253 -0.0816 -0.1557
   59DOPC  H13R 8078   4.694   0.360   4.463  1.6348 -0.2326 -2.0358
   59DOPC  H13S 8079   4.816   0.486   4.501 -0.1277 -0.9323  0.9070
   59DOPC  C214 8080   4.672   0.536   4.340  0.2816 -0.1332  0.1315
   59DOPC  H14R 8081   4.679   0.647   4.347 -0.1567  0.0022 -1.3392
   59DOPC  H14S 8082   4.567   0.508   4.319  0.3638  0.3535 -1.0366
   59DOPC  C215 8083   4.752   0.482   4.213  0.3988 -0.2951  0.2736
   59DOPC  H15R 8084   4.709   0.537   4.126  0.1022  0.1367  0.6842
   59DOPC  H15S 8085   4.725   0.376   4.193  3.3224 -1.0527 -0.0938
   59DOPC  C216 8086   4.901   0.490   4.235 -0.6783  0.0722  0.3144
   59DOPC  H16R 8087   4.943   0.425   4.314  1.0365 -1.0560 -1.4294
   59DOPC  H16S 8088   4.936   0.590   4.269  1.7839 -0.6827  0.2059
   59DOPC  C217 8089   4.989   0.459   4.108 -0.0340 -0.4731  0.5210
   59DOPC  H17R 8090   4.960   0.374   4.041  0.7626  1.3388 -2.2766
   59DOPC  H17S 8091   5.095   0.440   4.136  0.0059 -0.7003  0.2251
   59DOPC  C218 8092   4.988   0.582   4.013 -0.3653 -0.1913  0.9108
   59DOPC  H18R 8093   4.996   0.555   3.906  1.3745  2.8554  0.1345
   59DOPC  H18S 8094   5.069   0.652   4.041  0.0223 -0.2105 -0.1363
   59DOPC  H18T 8095   4.890   0.630   4.036 -0.8020 -0.3640 -0.5001
   59DOPC   C33 8096   4.915   1.183   5.090  0.3487  0.1352  0.3577
   59DOPC   H3X 8097   4.985   1.264   5.119  0.7439  0.8105 -2.2063
   59DOPC   H3Y 8098   4.815   1.222   5.060  0.7997  1.0201 -0.0493
   59DOPC   C34 8099   4.976   1.124   4.971  0.2051 -0.6819 -0.1286
   59DOPC   H4X 8100   4.907   1.039   4.950 -0.8481  0.4001 -1.1487
   59DOPC   H4Y 8101   5.074   1.080   4.998  0.9673  0.4205 -1.0020
   59DOPC   C35 8102   5.013   1.209   4.853  0.4667 -0.5085  0.2366
   59DOPC   H5X 8103   5.097   1.276   4.881 -0.1038  1.5194 -2.4208
   59DOPC   H5Y 8104   4.929   1.278   4.829 -1.3554 -2.2641  1.3179
   59DOPC   C36 8105   5.056   1.133   4.726 -0.6490  0.0357 -0.0331
   59DOPC   H6X 8106   4.968   1.076   4.692  0.6909 -1.0633 -1.8326
   59DOPC   H6Y 8107   5.080   1.194   4.636  1.4954  0.9245  1.0595
   59DOPC   C37 8108   5.157   1.022   4.749 -0.2193 -0.7327  0.3396
   59DOPC   H7X 8109   5.247   1.080   4.779 -0.3236 -1.0485  1.3297
   59DOPC   H7Y 8110   5.133   0.950   4.831 -0.7584 -1.3925 -0.3897
   59DOPC   C38 8111   5.195   0.946   4.626 -0.1507  1.0762 -0.1100
   59DOPC   H8X 8112   5.281   0.883   4.658 -0.6565 -1.4321 -3.1789
   59DOPC   H8Y 8113   5.240   1.012   4.549  0.0119 -0.0564 -1.0220
   59DOPC   C39 8114   5.093   0.847   4.577 -0.0939  0.2533 -0.2237
   59DOPC   H9X 8115   5.022   0.810   4.654  2.0312 -1.6122  0.9611
   59DOPC  C310 8116   5.070   0.816   4.442  0.3954  0.6757 -0.1964
   59DOPC  H10X 8117   4.984   0.753   4.417  3.6265 -3.7310 -1.4907
   59DOPC  C311 8118   5.158   0.865   4.328 -0.4349 -0.5997  0.0192
   59DOPC  H11X 8119   5.205   0.965   4.339 -1.0591 -0.2477 -0.4708
   59DOPC  H11Y 8120   5.107   0.863   4.230  0.4329 -0.3409 -0.4443
   59DOPC  C312 8121   5.277   0.764   4.311 -0.2376  0.1547  0.4244
   59DOPC  H12X 8122   5.240   0.687   4.241 -0.0623 -0.3042  0.8347
   59DOPC  H12Y 8123   5.302   0.716   4.408 -0.7424  0.9485  0.9608
   59DOPC  C313 8124   5.406   0.839   4.251  0.7229  0.7185 -0.5664
   59DOPC  H13X 8125   5.389   0.862   4.144  1.6611  1.6708 -0.5256
   59DOPC  H13Y 8126   5.423   0.933   4.307 -0.1735 -0.3606  1.6287
   59DOPC  C314 8127   5.538   0.761   4.246  0.4469 -0.0979  0.4011
   59DOPC  H14X 8128   5.559   0.737   4.352  0.7838 -0.1789  0.3165
   59DOPC  H14Y 8129   5.516   0.672   4.182  1.3816  2.4359 -3.8432
   59DOPC  C315 8130   5.648   0.850   4.182 -0.0277 -0.5990 -0.0372
   59DOPC  H15X 8131   5.680   0.920   4.262  1.1499 -0.5962 -0.4882
   59DOPC  H15Y 8132   5.598   0.914   4.105  0.6111  0.2950  0.2757
   59DOPC  C316 8133   5.762   0.776   4.120 -0.2155 -0.0133 -0.1270
   59DOPC  H16X 8134   5.841   0.845   4.084 -1.2060  1.1304 -0.1910
   59DOPC  H16Y 8135   5.806   0.705   4.193 -1.1985 -0.6188 -0.1016
   59DOPC  C317 8136   5.718   0.682   4.008  0.0191  0.5560  0.9899
   59DOPC  H17X 8137   5.632   0.613   4.023  0.4176 -0.1203  0.2692
   59DOPC  H17Y 8138   5.687   0.734   3.914  0.7334 -2.5218 -1.1070
   59DOPC  C318 8139   5.834   0.586   3.968 -0.0700 -0.1245  0.5053
   59DOPC  H18X 8140   5.929   0.635   3.938 -0.8418  0.0201 -2.0309
   59DOPC  H18Y 8141   5.861   0.514   4.047  1.5735  0.5930  0.6291
   59DOPC  H18Z 8142   5.799   0.535   3.875 -1.0105  1.5812 -0.1409
   60DOPC     N 8143   4.492   5.603   6.621 -0.8425 -0.0448 -0.4451
   60DOPC   C12 8144   4.453   5.569   6.482  0.0237 -0.4832  0.1840
   60DOPC  H12A 8145   4.348   5.542   6.474  0.1658 -0.6308 -1.3706
   60DOPC  H12B 8146   4.508   5.479   6.458 -0.4864 -0.1395 -2.5987
   60DOPC   C13 8147   4.636   5.648   6.638 -0.0345 -0.0469  0.3379
   60DOPC  H13A 8148   4.657   5.745   6.597  0.1401 -0.9990 -1.9566
   60DOPC  H13B 8149   4.656   5.650   6.744 -2.2939 -1.2394  0.8608
   60DOPC  H13C 8150   4.705   5.578   6.595  0.8816  1.7563 -1.2398
   60DOPC   C14 8151   4.469   5.478   6.700 -0.0665  0.5452 -0.0967
   60DOPC  H14A 8152   4.531   5.395   6.668  2.9828  2.2044  1.0601
   60DOPC  H14B 8153   4.501   5.494   6.802  1.2100 -2.4445  0.0854
   60DOPC  H14C 8154   4.365   5.451   6.696  0.3363 -1.1202 -0.1124
   60DOPC   C15 8155   4.403   5.710   6.681 -0.7104  0.3192 -0.4761
   60DOPC  H15A 8156   4.415   5.811   6.645  0.5350 -0.1049 -1.3109
   60DOPC  H15B 8157   4.397   5.708   6.789  3.1825 -1.2727 -0.1201
   60DOPC  H15C 8158   4.304   5.672   6.662  0.0230 -2.2446  0.3586
   60DOPC   C11 8159   4.477   5.677   6.366  0.0820 -0.0307 -0.0389
   60DOPC  H11A 8160   4.584   5.700   6.383  0.4232 -1.3825 -0.2715
   60DOPC  H11B 8161   4.472   5.650   6.259  2.0516  0.7071 -0.3630
   60DOPC     P 8162   4.233   5.801   6.346 -0.3721  0.0947 -0.2866
   60DOPC   O13 8163   4.174   5.925   6.402  0.2428  0.0347  0.6246
   60DOPC   O14 8164   4.169   5.674   6.374  0.0751 -0.1482 -0.6238
   60DOPC   O12 8165   4.392   5.789   6.385 -0.2171 -0.7979 -0.2306
   60DOPC   O11 8166   4.232   5.821   6.187  0.8166 -0.3466 -0.7135
   60DOPC    C1 8167   4.333   5.905   6.129  0.1680 -0.1125 -0.6398
   60DOPC    HA 8168   4.436   5.865   6.132  1.4027  2.3222 -3.8631
   60DOPC    HB 8169   4.341   6.005   6.177  1.8272 -0.8488  0.7089
   60DOPC    C2 8170   4.300   5.931   5.983 -0.2922  0.4157 -0.5772
   60DOPC    HS 8171   4.193   5.959   5.985 -0.3046  0.5977 -2.3735
   60DOPC   O21 8172   4.319   5.816   5.906 -0.4111  0.7804  0.5257
   60DOPC   C21 8173   4.219   5.785   5.819  0.1558  0.0987 -0.2983
   60DOPC   O22 8174   4.115   5.844   5.810  0.2028  0.4451 -0.7419
   60DOPC   C22 8175   4.259   5.654   5.759 -0.3406  0.1188  1.0132
   60DOPC   H2R 8176   4.169   5.588   5.757  0.4491 -0.9756  0.6414
   60DOPC   H2S 8177   4.334   5.599   5.818 -0.0488 -0.2455  0.3146
   60DOPC    C3 8178   4.396   6.033   5.926  0.0596 -0.4188  0.0723
   60DOPC    HX 8179   4.375   6.126   5.982  2.2581 -0.5421  1.2014
   60DOPC    HY 8180   4.355   6.052   5.825 -1.1184  0.3359  0.6693
   60DOPC   O31 8181   4.531   5.988   5.929 -0.0908  0.0658  0.5435
   60DOPC   C31 8182   4.609   6.028   5.827 -0.2861  0.2572  0.4618
   60DOPC   O32 8183   4.568   6.093   5.732 -0.2911 -0.3984 -0.2017
   60DOPC   C32 8184   4.744   5.963   5.847  0.9014  0.3101 -0.0411
   60DOPC   H2X 8185   4.772   5.964   5.955  0.6098  0.5552  0.0338
   60DOPC   H2Y 8186   4.731   5.853   5.839  0.6286  0.0931  2.4351
   60DOPC   C23 8187   4.322   5.672   5.621 -0.5081 -0.2297 -0.1841
   60DOPC   H3R 8188   4.265   5.733   5.546  1.6145  1.6957 -0.3267
   60DOPC   H3S 8189   4.326   5.572   5.572 -0.4004  0.7219 -2.2440
   60DOPC   C24 8190   4.467   5.721   5.621  0.1593  0.3438  0.2833
   60DOPC   H4R 8191   4.536   5.650   5.671 -0.0925 -0.0713  0.0495
   60DOPC   H4S 8192   4.461   5.815   5.680  1.1641 -0.3570  1.5245
   60DOPC   C25 8193   4.526   5.760   5.486 -0.4865  0.2189 -0.0677
   60DOPC   H5R 8194   4.617   5.818   5.513 -1.4502  1.1955  1.1813
   60DOPC   H5S 8195   4.462   5.835   5.435 -0.0769 -0.4783 -1.6647
   60DOPC   C26 8196   4.546   5.645   5.392  1.2574 -0.2151 -0.0904
   60DOPC   H6R 8197   4.449   5.599   5.363  0.8026  1.6712 -1.7577
   60DOPC   H6S 8198   4.620   5.567   5.422  0.5061 -0.8868  0.0662
   60DOPC   C27 8199   4.597   5.716   5.263 -0.0219  0.5893 -0.4166
   60DOPC   H7R 8200   4.701   5.740   5.292 -0.0129 -1.5666  1.6474
   60DOPC   H7S 8201   4.541   5.810   5.243  0.9152  0.9405 -1.4907
   60DOPC   C28 8202   4.609   5.618   5.146 -0.9210 -0.2227  0.8580
   60DOPC   H8R 8203   4.665   5.526   5.174 -0.5390 -0.6891 -1.2359
   60DOPC   H8S 8204   4.681   5.660   5.073 -1.7229 -1.2396 -0.5647
   60DOPC   C29 8205   4.485   5.587   5.076 -0.0564  0.4578  1.1013
   60DOPC   H9R 8206   4.389   5.637   5.096 -0.3582  0.5245 -0.4001
   60DOPC  C210 8207   4.468   5.484   4.989 -0.3912  0.9817 -0.2119
   60DOPC  H10R 8208   4.372   5.472   4.937  0.2994 -3.5891 -0.9038
   60DOPC  C211 8209   4.581   5.396   4.945 -0.0248 -0.0259  0.2220
   60DOPC  H11R 8210   4.590   5.317   5.023  1.7094  2.3188  2.5444
   60DOPC  H11S 8211   4.678   5.451   4.949 -0.2175  0.5276 -1.8360
   60DOPC  C212 8212   4.558   5.353   4.795  0.5682 -0.5051 -0.8821
   60DOPC  H12R 8213   4.567   5.442   4.729  0.2895 -0.1798 -0.4823
   60DOPC  H12S 8214   4.457   5.308   4.784  0.6465 -0.8242 -0.3286
   60DOPC  C213 8215   4.664   5.257   4.742 -0.3378 -0.2937  0.0665
   60DOPC  H13R 8216   4.633   5.222   4.641  2.2396 -1.4626 -0.4040
   60DOPC  H13S 8217   4.669   5.171   4.812  2.2635 -1.3929 -1.3246
   60DOPC  C214 8218   4.807   5.323   4.719  0.1233 -0.7493  0.8104
   60DOPC  H14R 8219   4.839   5.388   4.803  1.2117  0.8595 -0.7856
   60DOPC  H14S 8220   4.799   5.386   4.628  2.0906  1.5882  2.1365
   60DOPC  C215 8221   4.920   5.219   4.700 -0.3528  0.4951 -0.4734
   60DOPC  H15R 8222   5.012   5.280   4.706 -0.2924  0.2895  1.3523
   60DOPC  H15S 8223   4.906   5.168   4.603 -0.7377 -0.5770  0.1208
   60DOPC  C216 8224   4.935   5.125   4.819 -0.8558  0.2677  0.2906
   60DOPC  H16R 8225   5.027   5.068   4.793  0.5672  2.6221 -0.1245
   60DOPC  H16S 8226   4.854   5.050   4.829 -1.4159  0.8819  0.4411
   60DOPC  C217 8227   4.969   5.203   4.948 -0.2101 -0.4543 -0.8907
   60DOPC  H17R 8228   4.876   5.245   4.991 -0.5923 -0.9820 -1.1839
   60DOPC  H17S 8229   5.041   5.285   4.927  1.4236 -1.4260  0.6310
   60DOPC  C218 8230   5.019   5.121   5.066  0.4241 -0.5900 -0.0267
   60DOPC  H18R 8231   5.103   5.058   5.028  0.5080 -1.1502  1.0635
   60DOPC  H18S 8232   4.941   5.057   5.112  2.1169 -2.1414  0.7906
   60DOPC  H18T 8233   5.057   5.191   5.143  1.4416 -0.2880 -0.7760
   60DOPC   C33 8234   4.853   6.015   5.754  1.0360  0.2488  0.2620
   60DOPC   H3X 8235   4.946   5.972   5.797  1.5135 -1.0863 -1.9384
   60DOPC   H3Y 8236   4.853   6.125   5.769  0.7126  0.5950 -1.9448
   60DOPC   C34 8237   4.835   5.977   5.606  0.1491 -0.3727  0.3623
   60DOPC   H4X 8238   4.743   6.023   5.566  1.2388  3.7630  2.0857
   60DOPC   H4Y 8239   4.822   5.867   5.593  0.6737 -0.2940 -0.9761
   60DOPC   C35 8240   4.968   6.012   5.540 -0.2439 -0.6566  0.6285
   60DOPC   H5X 8241   5.052   5.976   5.604 -0.3954  1.8627  2.3748
   60DOPC   H5Y 8242   4.985   6.122   5.541 -1.5593 -0.4367  1.6569
   60DOPC   C36 8243   4.972   5.964   5.395 -0.4848  0.0313  0.8560
   60DOPC   H6X 8244   4.964   5.854   5.404 -0.5290 -0.4412 -3.1161
   60DOPC   H6Y 8245   4.881   5.995   5.340  0.8642  1.1091 -0.8725
   60DOPC   C37 8246   5.099   6.000   5.315 -1.1147 -0.8055 -0.9373
   60DOPC   H7X 8247   5.117   6.108   5.296 -3.0645 -0.7604 -2.7768
   60DOPC   H7Y 8248   5.186   5.959   5.371 -1.7970 -1.0908 -0.0608
   60DOPC   C38 8249   5.098   5.945   5.163 -1.0453 -0.4625 -0.3942
   60DOPC   H8X 8250   5.033   6.009   5.100 -2.0488 -0.1871  0.8833
   60DOPC   H8Y 8251   5.053   5.843   5.165 -0.8209 -0.6162 -1.6870
   60DOPC   C39 8252   5.241   5.943   5.107 -0.3949 -0.7193 -0.0660
   60DOPC   H9X 8253   5.318   5.892   5.167 -0.1605  0.4166  0.6176
   60DOPC  C310 8254   5.291   6.006   4.997  0.8947  0.7333  0.0620
   60DOPC  H10X 8255   5.392   5.975   4.963  0.9013  0.1690  0.5693
   60DOPC  C311 8256   5.212   6.085   4.895  0.0834 -0.3711 -0.4669
   60DOPC  H11X 8257   5.125   6.131   4.947 -0.3327 -2.3778  0.7067
   60DOPC  H11Y 8258   5.176   6.022   4.812 -2.2036  0.3212 -0.0575
   60DOPC  C312 8259   5.302   6.203   4.833 -0.1968  0.0539 -0.2569
   60DOPC  H12X 8260   5.387   6.147   4.789 -0.5239 -1.0162  0.4383
   60DOPC  H12Y 8261   5.336   6.272   4.913  0.2568  1.9167 -1.9774
   60DOPC  C313 8262   5.218   6.290   4.738  0.0432 -0.3979 -0.2755
   60DOPC  H13X 8263   5.127   6.329   4.789  0.1843 -0.6424  0.1646
   60DOPC  H13Y 8264   5.274   6.375   4.695  0.4972 -0.3526  0.3907
   60DOPC  C314 8265   5.144   6.218   4.619  0.2642  0.1563  0.3705
   60DOPC  H14X 8266   5.215   6.156   4.561 -1.1260 -1.1083 -0.0216
   60DOPC  H14Y 8267   5.075   6.145   4.667 -0.0836 -0.4706 -1.0267
   60DOPC  C315 8268   5.064   6.300   4.524  0.9523 -0.4777 -0.6434
   60DOPC  H15X 8269   5.122   6.376   4.467  1.2339 -0.8487 -0.8545
   60DOPC  H15Y 8270   4.996   6.366   4.582  0.0818 -1.6746 -0.2736
   60DOPC  C316 8271   4.990   6.210   4.425 -0.3995  0.1745 -0.5776
   60DOPC  H16X 8272   5.062   6.156   4.359  2.3602  3.1512 -0.2613
   60DOPC  H16Y 8273   4.940   6.137   4.493 -1.0715  1.8471  0.7793
   60DOPC  C317 8274   4.888   6.280   4.341 -0.6521 -0.0856 -0.2934
   60DOPC  H17X 8275   4.803   6.327   4.396 -1.1776  0.7814 -1.7761
   60DOPC  H17Y 8276   4.940   6.365   4.292 -2.2733  0.3864 -1.2606
   60DOPC  C318 8277   4.821   6.186   4.240  0.0775  0.0018 -0.3066
   60DOPC  H18X 8278   4.896   6.149   4.167 -0.0447  0.6969 -0.7950
   60DOPC  H18Y 8279   4.770   6.098   4.285 -1.5108 -0.6995 -3.2325
   60DOPC  H18Z 8280   4.744   6.248   4.190 -0.6113  0.5048  1.3115
   61DOPC     N 8281   1.084   3.595   6.343  0.3486  0.9663 -0.3402
   61DOPC   C12 8282   1.118   3.682   6.224 -0.1199 -0.2191  0.3579
   61DOPC  H12A 8283   1.215   3.715   6.257  0.2771 -3.1233  2.5376
   61DOPC  H12B 8284   1.047   3.763   6.212 -1.1882 -1.4660 -3.1464
   61DOPC   C13 8285   1.174   3.478   6.346 -0.1526  0.4807 -0.0673
   61DOPC  H13A 8286   1.164   3.427   6.251 -0.3344 -0.2867  0.3530
   61DOPC  H13B 8287   1.278   3.505   6.330  0.7925 -2.8117 -0.1578
   61DOPC  H13C 8288   1.168   3.416   6.434  0.8150  1.6090  0.8362
   61DOPC   C14 8289   0.943   3.547   6.330 -0.3770 -0.1504 -0.7573
   61DOPC  H14A 8290   0.926   3.513   6.229 -1.2955  0.9010 -0.9740
   61DOPC  H14B 8291   0.938   3.463   6.397  2.9847 -1.7473 -2.2497
   61DOPC  H14C 8292   0.878   3.630   6.354  1.4907  0.8749  1.1033
   61DOPC   C15 8293   1.102   3.680   6.467 -0.4102  0.0235  0.3880
   61DOPC  H15A 8294   1.075   3.641   6.564  0.5724  1.4030  1.2503
   61DOPC  H15B 8295   1.067   3.782   6.460 -1.3803 -0.3729 -0.9653
   61DOPC  H15C 8296   1.207   3.703   6.478 -0.8250  0.9400  3.2216
   61DOPC   C11 8297   1.126   3.625   6.079  0.4110  0.3887 -0.0560
   61DOPC  H11A 8298   1.024   3.587   6.057 -0.3075  2.2448 -0.0998
   61DOPC  H11B 8299   1.150   3.707   6.009 -0.6496 -0.7627 -1.8384
   61DOPC     P 8300   1.375   3.536   6.034 -0.7646 -0.4557  0.3404
   61DOPC   O13 8301   1.427   3.396   6.023 -0.1696 -0.0534 -0.2487
   61DOPC   O14 8302   1.432   3.627   6.130  0.8076  0.6616 -0.2823
   61DOPC   O12 8303   1.225   3.521   6.070  0.3870 -0.2604 -0.7374
   61DOPC   O11 8304   1.384   3.585   5.882 -0.7307  0.3291 -0.1155
   61DOPC    C1 8305   1.386   3.727   5.854  0.0918 -0.2991  0.7155
   61DOPC    HA 8306   1.482   3.754   5.804 -1.1966  2.1937 -0.6038
   61DOPC    HB 8307   1.363   3.788   5.943 -0.2269  0.8579 -0.1337
   61DOPC    C2 8308   1.272   3.761   5.748  0.5127  0.0635 -0.7873
   61DOPC    HS 8309   1.178   3.756   5.807  0.1687 -3.6845 -1.4017
   61DOPC   O21 8310   1.274   3.667   5.629  0.5156 -0.0092 -0.0356
   61DOPC   C21 8311   1.177   3.578   5.627  0.3541  0.7875 -0.1061
   61DOPC   O22 8312   1.073   3.583   5.692 -0.8631  0.1788 -0.1567
   61DOPC   C22 8313   1.204   3.471   5.521 -0.3572  0.2746 -0.1728
   61DOPC   H2R 8314   1.138   3.384   5.545 -1.9218  1.4674  0.0426
   61DOPC   H2S 8315   1.312   3.450   5.533  0.3935  3.4948 -0.3396
   61DOPC    C3 8316   1.293   3.908   5.712 -0.0930  0.0086 -0.7094
   61DOPC    HX 8317   1.401   3.928   5.695 -0.1474  1.6829  0.5978
   61DOPC    HY 8318   1.251   3.969   5.795  0.5646  1.7070 -1.5734
   61DOPC   O31 8319   1.209   3.937   5.596  0.3076  0.2923 -0.1558
   61DOPC   C31 8320   1.266   3.913   5.475  0.4956 -0.4254 -0.7066
   61DOPC   O32 8321   1.383   3.877   5.456 -0.2624  0.3860 -0.6276
   61DOPC   C32 8322   1.163   3.933   5.359  0.2655 -0.9601 -0.2867
   61DOPC   H2X 8323   1.091   3.849   5.367  0.0473 -0.6153  2.1129
   61DOPC   H2Y 8324   1.111   4.029   5.381 -0.2737 -1.2515 -0.2704
   61DOPC   C23 8325   1.188   3.521   5.371 -0.1403  0.5431 -0.3806
   61DOPC   H3R 8326   1.241   3.438   5.319 -0.8696 -1.7910  2.3765
   61DOPC   H3S 8327   1.244   3.613   5.343  1.5478 -0.9689 -2.2516
   61DOPC   C24 8328   1.045   3.522   5.322  0.3748 -0.8740  0.7852
   61DOPC   H4R 8329   0.987   3.596   5.380 -0.3208  1.9070 -3.0348
   61DOPC   H4S 8330   1.004   3.420   5.339 -0.7822 -0.4499  0.5996
   61DOPC   C25 8331   1.045   3.543   5.170 -0.1357 -0.1301 -0.1583
   61DOPC   H5R 8332   1.109   3.462   5.128  2.2600 -0.4826  3.7212
   61DOPC   H5S 8333   1.090   3.641   5.144  0.5171 -0.7179 -1.3390
   61DOPC   C26 8334   0.905   3.535   5.104  0.1501 -0.2453 -0.2604
   61DOPC   H6R 8335   0.830   3.558   5.183  1.6742 -0.8249  1.4215
   61DOPC   H6S 8336   0.874   3.436   5.063 -0.8455  0.5103 -1.3774
   61DOPC   C27 8337   0.894   3.633   4.979  0.3589 -0.1222  0.0357
   61DOPC   H7R 8338   0.989   3.619   4.924  0.0394  0.1306 -0.5821
   61DOPC   H7S 8339   0.892   3.743   4.998  0.0105 -0.2541  0.8119
   61DOPC   C28 8340   0.768   3.604   4.892 -0.2815  0.5480  0.1834
   61DOPC   H8R 8341   0.675   3.611   4.951 -1.0243  0.3359 -0.9328
   61DOPC   H8S 8342   0.778   3.496   4.865 -2.2461 -0.0030  1.4444
   61DOPC   C29 8343   0.773   3.691   4.768  0.2166  0.0930 -0.1093
   61DOPC   H9R 8344   0.832   3.662   4.680  1.1926 -1.1443  0.9129
   61DOPC  C210 8345   0.705   3.805   4.754  0.1657 -0.0162  0.0560
   61DOPC  H10R 8346   0.711   3.866   4.662 -0.8973  0.2807  0.1681
   61DOPC  C211 8347   0.617   3.865   4.865 -0.2873 -0.1298 -0.4553
   61DOPC  H11R 8348   0.677   3.923   4.939 -3.0246  2.9938 -0.4448
   61DOPC  H11S 8349   0.555   3.789   4.916 -0.8862  0.8038  0.2483
   61DOPC  C212 8350   0.517   3.973   4.803 -0.5485 -0.0169  0.1568
   61DOPC  H12R 8351   0.585   4.035   4.741 -2.6093  0.3748 -1.8686
   61DOPC  H12S 8352   0.483   4.034   4.890 -1.8441  0.6778 -0.7909
   61DOPC  C213 8353   0.395   3.913   4.731  0.1907  0.0045  0.1399
   61DOPC  H13R 8354   0.311   3.915   4.805  0.2693 -1.7316  0.3042
   61DOPC  H13S 8355   0.430   3.809   4.718 -0.7606 -0.3554  0.3685
   61DOPC  C214 8356   0.372   3.990   4.604 -0.0321  0.3240 -0.4751
   61DOPC  H14R 8357   0.460   3.999   4.537  2.3899 -0.9950  2.2918
   61DOPC  H14S 8358   0.348   4.092   4.641 -1.4522 -1.0666  2.8226
   61DOPC  C215 8359   0.255   3.943   4.522  0.8041 -0.2199  1.1544
   61DOPC  H15R 8360   0.158   3.960   4.575 -0.3532 -1.3618 -0.4998
   61DOPC  H15S 8361   0.257   3.836   4.494  0.1004  0.2023 -0.6633
   61DOPC  C216 8362   0.249   4.005   4.383 -0.6964  0.2565  0.1540
   61DOPC  H16R 8363   0.349   3.989   4.336  0.5478  1.2179  2.3256
   61DOPC  H16S 8364   0.226   4.114   4.387 -1.1480  0.2491 -1.3934
   61DOPC  C217 8365   0.143   3.936   4.283 -0.4076 -0.5468  0.3672
   61DOPC  H17R 8366   0.152   3.825   4.290  0.0257 -0.7980 -2.5600
   61DOPC  H17S 8367   0.156   3.962   4.175 -2.4146 -0.7441  0.0320
   61DOPC  C218 8368   0.002   3.985   4.327 -0.2522 -0.0090  0.8660
   61DOPC  H18R 8369  -0.068   3.933   4.258  0.7849 -0.4999  0.1388
   61DOPC  H18S 8370  -0.005   4.095   4.310  2.0503  0.0604 -0.0651
   61DOPC  H18T 8371  -0.014   3.955   4.432  0.1514  2.2423  1.6432
   61DOPC   C33 8372   1.225   3.926   5.220 -0.8202 -0.0192  0.3217
   61DOPC   H3X 8373   1.269   3.825   5.210 -1.6526 -0.3032 -0.6822
   61DOPC   H3Y 8374   1.311   3.995   5.210  0.9093 -2.1137  0.0687
   61DOPC   C34 8375   1.122   3.942   5.104  0.4229  0.2036 -0.3799
   61DOPC   H4X 8376   1.112   4.051   5.084 -0.9987  0.5910  2.1171
   61DOPC   H4Y 8377   1.027   3.891   5.129  1.9591 -2.6961 -0.0844
   61DOPC   C35 8378   1.174   3.882   4.974 -0.5499  0.3737 -0.5616
   61DOPC   H5X 8379   1.191   3.775   4.997  0.7162  0.2640 -1.8560
   61DOPC   H5Y 8380   1.272   3.934   4.968  0.5224 -1.4582  0.3543
   61DOPC   C36 8381   1.085   3.918   4.855  0.2904  0.0917  0.6036
   61DOPC   H6X 8382   0.987   3.865   4.856  1.0105 -1.3964 -1.1087
   61DOPC   H6Y 8383   1.067   4.027   4.854  1.8100  0.3752 -0.4868
   61DOPC   C37 8384   1.158   3.894   4.717  0.3924 -0.2289  0.6693
   61DOPC   H7X 8385   1.252   3.952   4.727  0.6596 -0.3773 -0.8243
   61DOPC   H7Y 8386   1.187   3.787   4.713  0.2313 -0.2284 -1.4263
   61DOPC   C38 8387   1.077   3.932   4.586 -0.2116  0.3603  0.0489
   61DOPC   H8X 8388   0.996   3.859   4.565  2.4042 -2.4138 -1.2478
   61DOPC   H8Y 8389   1.159   3.912   4.514  1.9010  2.6238  1.6878
   61DOPC   C39 8390   1.026   4.069   4.574 -0.6115 -0.7417 -0.1034
   61DOPC   H9X 8391   0.977   4.100   4.668  0.0361 -2.0386  0.6990
   61DOPC  C310 8392   1.045   4.165   4.479 -0.2497 -0.0706  0.2834
   61DOPC  H10X 8393   1.002   4.266   4.482 -3.0661 -1.1932  0.5119
   61DOPC  C311 8394   1.128   4.159   4.353 -0.3711 -0.1587 -0.4557
   61DOPC  H11X 8395   1.185   4.064   4.343  0.5417  0.4325 -0.9710
   61DOPC  H11Y 8396   1.213   4.230   4.346 -0.6972  0.2311 -0.5010
   61DOPC  C312 8397   1.033   4.169   4.235 -0.7170 -0.4572  0.3417
   61DOPC  H12X 8398   0.966   4.255   4.256  2.3739  1.6212  2.5308
   61DOPC  H12Y 8399   0.966   4.080   4.229 -0.7562 -0.4660  0.8594
   61DOPC  C313 8400   1.103   4.190   4.102 -0.2717  0.3278 -0.0105
   61DOPC  H13X 8401   1.033   4.157   4.023  3.3780 -2.6466 -2.3501
   61DOPC  H13Y 8402   1.125   4.295   4.075  2.3612 -0.7994 -2.9127
   61DOPC  C314 8403   1.230   4.105   4.086  0.1886 -0.0236  0.2190
   61DOPC  H14X 8404   1.294   4.131   4.173  1.2397  0.4140 -0.6687
   61DOPC  H14Y 8405   1.202   3.998   4.092  0.3975 -0.2158 -1.7609
   61DOPC  C315 8406   1.315   4.120   3.960  0.2392  0.3661  0.1525
   61DOPC  H15X 8407   1.396   4.046   3.968  1.7399  1.6601 -1.9894
   61DOPC  H15Y 8408   1.360   4.222   3.959 -1.2834  1.0715 -1.2412
   61DOPC  C316 8409   1.233   4.108   3.831 -0.3765  0.8115 -0.6220
   61DOPC  H16X 8410   1.159   4.025   3.831 -0.9274  1.3035 -0.7138
   61DOPC  H16Y 8411   1.174   4.197   3.801  3.1910  3.5764 -0.0475
   61DOPC  C317 8412   1.318   4.051   3.713  0.6726 -0.1151  1.2705
   61DOPC  H17X 8413   1.357   3.951   3.741 -0.8964 -1.2244 -0.2600
   61DOPC  H17Y 8414   1.233   4.043   3.641  1.4650 -2.5652  0.4923
   61DOPC  C318 8415   1.432   4.139   3.664 -0.2254 -0.6410  0.0618
   61DOPC  H18X 8416   1.471   4.118   3.562  0.1734  0.3437  0.0067
   61DOPC  H18Y 8417   1.393   4.243   3.676  0.4419 -0.6908  3.3846
   61DOPC  H18Z 8418   1.502   4.124   3.748 -0.7670  2.6193  1.2525
   62DOPC     N 8419   5.591   2.092   6.396 -0.5330  0.4398  0.2980
   62DOPC   C12 8420   5.540   2.156   6.271 -0.2962 -0.2339 -0.4923
   62DOPC  H12A 8421   5.518   2.085   6.192 -1.7415 -0.3945  0.0414
   62DOPC  H12B 8422   5.627   2.206   6.230 -0.4846  0.6362  0.1398
   62DOPC   C13 8423   5.488   2.006   6.458 -0.1694 -1.6259  0.6388
   62DOPC  H13A 8424   5.462   1.937   6.379 -3.2239 -0.8076  0.8100
   62DOPC  H13B 8425   5.531   1.950   6.540 -0.0219 -0.3459  1.4630
   62DOPC  H13C 8426   5.397   2.056   6.486 -1.2294 -1.4325 -2.7202
   62DOPC   C14 8427   5.641   2.193   6.490  0.0490  0.3894  0.0089
   62DOPC  H14A 8428   5.696   2.138   6.565 -0.6720  1.2240  1.1809
   62DOPC  H14B 8429   5.715   2.251   6.437 -1.2119 -0.2858 -2.6781
   62DOPC  H14C 8430   5.569   2.263   6.530 -0.4444  0.5179 -1.0817
   62DOPC   C15 8431   5.711   2.003   6.357 -0.8983 -0.3698 -0.1421
   62DOPC  H15A 8432   5.793   2.064   6.321 -1.9666  1.7377  0.8354
   62DOPC  H15B 8433   5.682   1.927   6.286 -2.3072  1.7351 -1.9361
   62DOPC  H15C 8434   5.748   1.939   6.436 -1.0453 -3.6920 -2.5733
   62DOPC   C11 8435   5.411   2.244   6.269 -0.3080  0.0049  0.1477
   62DOPC  H11A 8436   5.374   2.259   6.166  0.2747  1.2995  0.1138
   62DOPC  H11B 8437   5.327   2.181   6.306  0.3525  0.2166  2.1611
   62DOPC     P 8438   5.470   2.494   6.258 -0.3970 -0.0929  0.0112
   62DOPC   O13 8439   5.551   2.575   6.347 -0.0057 -0.4193 -0.1106
   62DOPC   O14 8440   5.357   2.570   6.193 -1.3869  0.0355 -0.2671
   62DOPC   O12 8441   5.415   2.373   6.339  0.6059 -0.2368 -0.4820
   62DOPC   O11 8442   5.567   2.431   6.146 -0.3570  0.3287 -0.8925
   62DOPC    C1 8443   5.709   2.420   6.152  0.1455 -0.3986 -0.0357
   62DOPC    HA 8444   5.750   2.330   6.102  0.3020  0.0164 -0.6573
   62DOPC    HB 8445   5.750   2.431   6.255 -0.9436 -0.5980  0.4354
   62DOPC    C2 8446   5.784   2.533   6.077  0.0680  0.3501  0.2604
   62DOPC    HS 8447   5.780   2.630   6.131  2.8339  1.7516 -1.7774
   62DOPC   O21 8448   5.733   2.549   5.936 -0.1786 -0.0960  0.5785
   62DOPC   C21 8449   5.634   2.640   5.923  0.0775 -0.5558 -0.6116
   62DOPC   O22 8450   5.585   2.708   6.015  0.0038  0.3157 -0.1560
   62DOPC   C22 8451   5.590   2.640   5.773  0.5705 -0.3263 -0.0929
   62DOPC   H2R 8452   5.527   2.731   5.760 -1.6950 -1.6310  1.1205
   62DOPC   H2S 8453   5.517   2.557   5.763  1.4377 -1.0695 -0.4776
   62DOPC    C3 8454   5.940   2.497   6.080 -0.1082 -0.3500  0.6548
   62DOPC    HX 8455   5.948   2.399   6.028 -1.5756 -1.2181  1.9839
   62DOPC    HY 8456   5.979   2.492   6.184  2.3053 -0.9674 -0.2122
   62DOPC   O31 8457   6.027   2.596   6.007  0.2558 -0.4344  0.3387
   62DOPC   C31 8458   6.147   2.549   5.976  0.9412 -0.0529 -0.9355
   62DOPC   O32 8459   6.203   2.461   6.040 -0.5250  0.3401 -0.7035
   62DOPC   C32 8460   6.200   2.618   5.848  0.2371 -0.5261  0.0718
   62DOPC   H2X 8461   6.129   2.699   5.818  0.9177 -0.6534 -2.1054
   62DOPC   H2Y 8462   6.292   2.668   5.885 -1.5917  3.0805  0.2522
   62DOPC   C23 8463   5.713   2.650   5.678 -0.4190  0.9740  0.6208
   62DOPC   H3R 8464   5.774   2.557   5.674 -0.8539  0.7253 -1.5047
   62DOPC   H3S 8465   5.782   2.727   5.718 -1.0649  1.8127  0.1568
   62DOPC   C24 8466   5.677   2.687   5.536 -0.1241 -0.5611  0.3474
   62DOPC   H4R 8467   5.637   2.788   5.557 -1.1012 -0.8725  0.0762
   62DOPC   H4S 8468   5.587   2.632   5.500 -0.6391 -0.4193  1.3671
   62DOPC   C25 8469   5.788   2.703   5.440 -0.4023  0.2969  0.5094
   62DOPC   H5R 8470   5.738   2.741   5.349 -0.2855 -1.1980 -0.2227
   62DOPC   H5S 8471   5.828   2.600   5.426 -1.2144  0.0827 -0.2721
   62DOPC   C26 8472   5.903   2.805   5.463  0.0817  0.2232  0.3716
   62DOPC   H6R 8473   5.952   2.771   5.556 -1.7033 -1.6497  0.7181
   62DOPC   H6S 8474   5.860   2.903   5.493  0.1524 -0.2057  1.9313
   62DOPC   C27 8475   5.990   2.819   5.336 -0.1507  0.2680 -0.1528
   62DOPC   H7R 8476   5.930   2.853   5.249 -0.1814 -1.0871 -0.6852
   62DOPC   H7S 8477   6.016   2.712   5.320 -2.2850 -0.4923  1.1013
   62DOPC   C28 8478   6.114   2.911   5.355  0.6733 -0.3018  0.6049
   62DOPC   H8R 8479   6.156   2.895   5.457 -1.8409 -2.5968  1.3854
   62DOPC   H8S 8480   6.076   3.016   5.356 -1.6377 -1.0827  0.2565
   62DOPC   C29 8481   6.214   2.896   5.245 -0.5338 -0.2749  0.1134
   62DOPC   H9R 8482   6.182   2.940   5.150 -1.3573 -0.4973  0.2811
   62DOPC  C210 8483   6.330   2.824   5.253 -0.0440 -0.7118 -0.1778
   62DOPC  H10R 8484   6.410   2.819   5.177  0.6420 -1.4514  0.5681
   62DOPC  C211 8485   6.373   2.753   5.378 -0.1702  0.4786  0.4008
   62DOPC  H11R 8486   6.400   2.652   5.339 -2.0976  0.6559 -1.6574
   62DOPC  H11S 8487   6.296   2.746   5.457  1.0163  1.2467  1.6544
   62DOPC  C212 8488   6.498   2.801   5.440 -0.2894  0.6016 -0.2447
   62DOPC  H12R 8489   6.491   2.911   5.456 -0.4677  0.5319  0.1473
   62DOPC  H12S 8490   6.586   2.796   5.371 -1.2024  0.3859 -1.4259
   62DOPC  C213 8491   6.530   2.732   5.572  0.1055  0.2163  0.2024
   62DOPC  H13R 8492   6.537   2.623   5.551 -0.9829  0.0852  0.4737
   62DOPC  H13S 8493   6.451   2.750   5.649  0.9761 -2.1326  1.7718
   62DOPC  C214 8494   6.668   2.767   5.621  0.0766 -0.3799  0.1517
   62DOPC  H14R 8495   6.669   2.869   5.666 -0.8455  0.2313 -1.1351
   62DOPC  H14S 8496   6.731   2.765   5.529  0.0727 -0.4956  0.1522
   62DOPC  C215 8497   6.718   2.662   5.729  0.4300 -0.7622  0.0410
   62DOPC  H15R 8498   6.800   2.723   5.775  0.5292 -0.1397 -0.9297
   62DOPC  H15S 8499   6.761   2.574   5.677  0.4503 -0.3978 -0.5581
   62DOPC  C216 8500   6.619   2.623   5.838  0.5657  0.0905  0.6491
   62DOPC  H16R 8501   6.538   2.570   5.783  1.1517 -0.8256  0.6554
   62DOPC  H16S 8502   6.570   2.714   5.880 -1.6256 -0.6715 -0.1094
   62DOPC  C217 8503   6.684   2.533   5.946  0.5712 -0.0851  0.4349
   62DOPC  H17R 8504   6.743   2.609   6.002  0.2413  0.8878 -0.5077
   62DOPC  H17S 8505   6.737   2.453   5.891  2.6448  1.2434  0.4059
   62DOPC  C218 8506   6.579   2.460   6.037  0.2913 -0.3652 -0.3902
   62DOPC  H18R 8507   6.502   2.410   5.975  0.8927 -0.2658 -1.2440
   62DOPC  H18S 8508   6.531   2.545   6.090 -2.2766 -1.7313 -0.3906
   62DOPC  H18T 8509   6.619   2.379   6.101  0.5000 -0.0009 -0.0492
   62DOPC   C33 8510   6.226   2.511   5.736 -0.8801 -0.5178 -0.1523
   62DOPC   H3X 8511   6.321   2.455   5.748 -0.3301  0.5638  0.7745
   62DOPC   H3Y 8512   6.231   2.583   5.651  0.5149 -0.2417  0.1255
   62DOPC   C34 8513   6.105   2.428   5.710  0.2294 -0.3639 -0.0242
   62DOPC   H4X 8514   6.014   2.491   5.726 -0.1359 -1.0830  0.8018
   62DOPC   H4Y 8515   6.104   2.344   5.782  0.1318  1.4029  2.1281
   62DOPC   C35 8516   6.094   2.377   5.571  0.0233 -0.0096 -0.3665
   62DOPC   H5X 8517   6.167   2.299   5.540  0.5528  0.1892  0.3546
   62DOPC   H5Y 8518   6.109   2.465   5.504 -1.1974  2.2050  2.0900
   62DOPC   C36 8519   5.959   2.325   5.540 -0.1405 -0.3317 -0.0075
   62DOPC   H6X 8520   5.914   2.259   5.618  0.4570 -1.1997 -0.3758
   62DOPC   H6Y 8521   5.889   2.410   5.534  0.8257  0.4805 -0.0182
   62DOPC   C37 8522   5.953   2.261   5.402  0.0613  0.4943  0.5925
   62DOPC   H7X 8523   5.975   2.330   5.317  0.3076 -0.4373 -0.1227
   62DOPC   H7Y 8524   6.041   2.193   5.408  2.7704  3.6210 -0.8409
   62DOPC   C38 8525   5.817   2.184   5.385  0.8082  0.2906 -0.4740
   62DOPC   H8X 8526   5.795   2.109   5.464 -0.2318 -0.0534 -1.0774
   62DOPC   H8Y 8527   5.823   2.126   5.291  0.3996 -3.7537  1.7563
   62DOPC   C39 8528   5.704   2.287   5.394 -0.0876  0.3464 -0.0972
   62DOPC   H9X 8529   5.655   2.288   5.492  0.8502 -0.8657  0.4147
   62DOPC  C310 8530   5.688   2.377   5.301 -0.1431 -0.5801 -0.2976
   62DOPC  H10X 8531   5.607   2.448   5.323  0.3654  0.4873 -1.7320
   62DOPC  C311 8532   5.750   2.378   5.161 -0.0258  0.8199  0.0157
   62DOPC  H11X 8533   5.664   2.351   5.097  0.2379 -2.0579  0.7050
   62DOPC  H11Y 8534   5.827   2.300   5.144 -1.4159 -0.4421 -0.7295
   62DOPC  C312 8535   5.810   2.512   5.125 -0.2432 -0.7083  0.8996
   62DOPC  H12X 8536   5.902   2.529   5.185  2.0678 -1.4649 -2.1724
   62DOPC  H12Y 8537   5.733   2.586   5.154  0.2979  0.1089  0.2888
   62DOPC  C313 8538   5.839   2.524   4.979 -0.1489  0.2228  0.1132
   62DOPC  H13X 8539   5.924   2.461   4.946  0.1449  0.6818 -0.0188
   62DOPC  H13Y 8540   5.754   2.492   4.915 -0.9696  0.6121  0.9845
   62DOPC  C314 8541   5.869   2.669   4.934 -0.5330  0.3363  0.3529
   62DOPC  H14X 8542   5.776   2.726   4.956 -0.0423  1.6104 -0.7071
   62DOPC  H14Y 8543   5.956   2.709   4.991 -0.6235  0.8614  0.1338
   62DOPC  C315 8544   5.908   2.677   4.782 -0.8633 -1.0342  0.1645
   62DOPC  H15X 8545   5.840   2.611   4.724 -0.7160  0.2930 -1.5989
   62DOPC  H15Y 8546   6.011   2.636   4.771 -0.4757 -0.6793  2.0072
   62DOPC  C316 8547   5.896   2.826   4.738 -0.0716  0.5500 -0.5016
   62DOPC  H16X 8548   5.895   2.832   4.628 -2.5745  0.1521 -0.5550
   62DOPC  H16Y 8549   5.809   2.874   4.787 -0.1794  0.6630 -0.8048
   62DOPC  C317 8550   6.016   2.908   4.789  0.0067  0.0030  0.5348
   62DOPC  H17X 8551   6.004   3.015   4.761  0.5984 -0.2953 -0.9228
   62DOPC  H17Y 8552   6.028   2.898   4.899 -1.6424 -3.1858  0.5592
   62DOPC  C318 8553   6.157   2.877   4.734  0.2759 -0.5430 -0.1313
   62DOPC  H18X 8554   6.191   2.772   4.742  2.8997  0.1334 -1.1165
   62DOPC  H18Y 8555   6.153   2.896   4.624  0.3019  0.0772 -0.0324
   62DOPC  H18Z 8556   6.231   2.947   4.779 -0.3228 -0.4684  0.7432
   63DOPC     N 8557   0.830   6.068   5.694  0.0071 -0.6488  0.3374
   63DOPC   C12 8558   0.964   6.070   5.620 -0.4999  0.1550  0.2483
   63DOPC  H12A 8559   1.036   6.064   5.700  0.6508 -1.6636 -0.8457
   63DOPC  H12B 8560   0.978   6.161   5.564 -1.5513 -0.9591 -1.9867
   63DOPC   C13 8561   0.733   6.133   5.604 -0.2779 -0.3108 -0.2529
   63DOPC  H13A 8562   0.773   6.228   5.571 -1.2086  0.5737  1.0468
   63DOPC  H13B 8563   0.709   6.069   5.521 -3.3378 -1.3719  1.3009
   63DOPC  H13C 8564   0.642   6.151   5.660 -1.4067 -2.1928 -1.3824
   63DOPC   C14 8565   0.837   6.162   5.816 -1.0647 -0.1206 -0.8264
   63DOPC  H14A 8566   0.916   6.121   5.877 -1.7462 -0.3750 -0.0906
   63DOPC  H14B 8567   0.872   6.260   5.789 -0.0898  0.7945  3.1873
   63DOPC  H14C 8568   0.751   6.177   5.880  1.2663  0.9989  2.2630
   63DOPC   C15 8569   0.774   5.936   5.738  0.3575  0.1643  0.4687
   63DOPC  H15A 8570   0.685   5.949   5.798 -0.3757 -0.1325 -0.5197
   63DOPC  H15B 8571   0.845   5.875   5.792  1.9583  0.6663 -0.9530
   63DOPC  H15C 8572   0.738   5.887   5.649  0.8854  0.8745 -0.1512
   63DOPC   C11 8573   1.010   5.954   5.529  0.0336 -0.7492  0.9554
   63DOPC  H11A 8574   0.928   5.948   5.454  0.6315 -0.6165  0.2743
   63DOPC  H11B 8575   1.099   5.963   5.463 -1.6365  0.6059 -1.2615
   63DOPC     P 8576   1.142   5.788   5.679 -0.0963  0.0394  0.4674
   63DOPC   O13 8577   1.126   5.642   5.713  0.3681 -0.6244 -0.1458
   63DOPC   O14 8578   1.139   5.882   5.790  0.1974 -0.0657 -0.1604
   63DOPC   O12 8579   1.014   5.827   5.587 -0.2282 -0.0740 -0.0925
   63DOPC   O11 8580   1.263   5.814   5.585  0.1266  0.0513 -0.3069
   63DOPC    C1 8581   1.327   5.703   5.518 -0.5243  0.2543 -0.8262
   63DOPC    HA 8582   1.355   5.612   5.577  0.7340  2.3393  2.0228
   63DOPC    HB 8583   1.424   5.750   5.491 -0.0219 -1.4810 -2.2789
   63DOPC    C2 8584   1.264   5.650   5.387 -0.7384  0.2035 -0.5368
   63DOPC    HS 8585   1.344   5.601   5.328 -0.7118  0.4279 -0.6890
   63DOPC   O21 8586   1.200   5.759   5.310 -0.0099  0.0216 -0.6324
   63DOPC   C21 8587   1.280   5.862   5.274 -0.1375 -0.4831 -0.3230
   63DOPC   O22 8588   1.406   5.860   5.278  0.0319 -0.2078 -0.0955
   63DOPC   C22 8589   1.194   5.959   5.187 -0.5353 -0.7144  1.0053
   63DOPC   H2R 8590   1.258   6.037   5.140 -0.0463  0.3868  3.3356
   63DOPC   H2S 8591   1.108   6.010   5.235  0.0983  0.9960  0.4029
   63DOPC    C3 8592   1.164   5.531   5.417 -0.7625  0.3791  0.2891
   63DOPC    HX 8593   1.079   5.575   5.474 -0.5327 -1.0918  1.8453
   63DOPC    HY 8594   1.210   5.450   5.477  0.0366 -1.2840 -2.4000
   63DOPC   O31 8595   1.122   5.472   5.295  0.1588  0.4995  0.1195
   63DOPC   C31 8596   0.993   5.498   5.250  0.3881 -0.5645 -0.7282
   63DOPC   O32 8597   0.903   5.541   5.318 -0.3099 -0.1415  0.4032
   63DOPC   C32 8598   0.990   5.463   5.106  0.4301 -0.0991 -0.1428
   63DOPC   H2X 8599   1.093   5.453   5.065  1.3266 -1.0115  2.2026
   63DOPC   H2Y 8600   0.931   5.369   5.102  2.2013 -1.4198  2.4259
   63DOPC   C23 8601   1.135   5.897   5.066  0.9288  0.3814  0.8263
   63DOPC   H3R 8602   1.085   5.971   4.999  0.4431 -0.7967 -0.1527
   63DOPC   H3S 8603   1.062   5.822   5.103  1.3913 -0.9292 -0.7939
   63DOPC   C24 8604   1.245   5.845   4.974  0.5522 -0.3284 -0.1028
   63DOPC   H4R 8605   1.311   5.766   5.016  1.0052  0.5061  0.8164
   63DOPC   H4S 8606   1.319   5.922   4.946  0.5081 -0.5947 -0.9664
   63DOPC   C25 8607   1.186   5.801   4.834  0.8357  0.5305 -0.6524
   63DOPC   H5R 8608   1.137   5.886   4.783 -2.2377  0.4634  1.8692
   63DOPC   H5S 8609   1.114   5.717   4.842 -0.7484  1.9336  0.2303
   63DOPC   C26 8610   1.299   5.743   4.741  0.1049  0.1934  0.2872
   63DOPC   H6R 8611   1.355   5.668   4.801 -0.3555  0.8844  1.6221
   63DOPC   H6S 8612   1.368   5.826   4.713  0.4990 -0.6002 -1.1773
   63DOPC   C27 8613   1.259   5.679   4.605 -0.0406  0.3535  0.2584
   63DOPC   H7R 8614   1.206   5.751   4.540  0.3581  0.8936  0.5291
   63DOPC   H7S 8615   1.176   5.605   4.610  0.9046 -0.9112 -1.6550
   63DOPC   C28 8616   1.383   5.618   4.535  0.0237 -0.3949 -0.0463
   63DOPC   H8R 8617   1.340   5.554   4.455 -2.0869  1.6207 -0.6199
   63DOPC   H8S 8618   1.452   5.566   4.606  0.1371 -0.4983 -0.2318
   63DOPC   C29 8619   1.459   5.729   4.461 -0.2411  0.9097 -0.0130
   63DOPC   H9R 8620   1.542   5.773   4.518 -0.6275  2.2078 -0.4209
   63DOPC  C210 8621   1.425   5.789   4.345 -0.6073 -0.3963 -0.3450
   63DOPC  H10R 8622   1.488   5.866   4.297 -0.6148 -0.9307 -1.2412
   63DOPC  C211 8623   1.305   5.750   4.257  0.0470  0.0643 -0.5694
   63DOPC  H11R 8624   1.269   5.838   4.199  0.2435 -0.1076 -0.9608
   63DOPC  H11S 8625   1.222   5.728   4.327 -0.1078  0.9297 -0.4674
   63DOPC  C212 8626   1.335   5.637   4.159 -0.5754  0.4265 -0.3193
   63DOPC  H12R 8627   1.412   5.568   4.198 -0.9578  0.4824  0.5651
   63DOPC  H12S 8628   1.373   5.686   4.067  0.0862 -0.3957 -0.4906
   63DOPC  C213 8629   1.208   5.563   4.127  0.0278  0.2142 -0.5120
   63DOPC  H13R 8630   1.124   5.635   4.134 -0.4684 -0.4319  0.3150
   63DOPC  H13S 8631   1.181   5.476   4.191 -0.4924  0.0972 -0.8762
   63DOPC  C214 8632   1.205   5.503   3.993  0.4158  0.4704  0.1771
   63DOPC  H14R 8633   1.306   5.463   3.971  1.5320  3.0433  0.2222
   63DOPC  H14S 8634   1.199   5.578   3.911  2.2825  1.6934  1.0759
   63DOPC  C215 8635   1.097   5.395   3.974  0.6181 -0.2258 -0.1928
   63DOPC  H15R 8636   1.092   5.329   4.063 -1.2284 -0.1245 -0.1767
   63DOPC  H15S 8637   1.114   5.334   3.882 -0.1914 -0.9229  0.1082
   63DOPC  C216 8638   0.960   5.459   3.935 -0.8032  0.1117 -0.2225
   63DOPC  H16R 8639   0.963   5.512   3.838 -1.1095 -1.1324 -0.9322
   63DOPC  H16S 8640   0.927   5.534   4.010 -1.4162  0.9181 -1.2673
   63DOPC  C217 8641   0.836   5.364   3.952 -0.6023  0.0788  0.1839
   63DOPC  H17R 8642   0.738   5.417   3.959  0.2490  2.0823 -1.6557
   63DOPC  H17S 8643   0.849   5.315   4.051  1.5153 -0.5477 -0.3540
   63DOPC  C218 8644   0.820   5.270   3.831  0.6869  0.1426 -0.3524
   63DOPC  H18R 8645   0.726   5.212   3.850  0.6384  0.3006 -0.0934
   63DOPC  H18S 8646   0.900   5.193   3.833  0.7546  0.1961 -0.9928
   63DOPC  H18T 8647   0.812   5.322   3.734  0.6284  0.1342 -0.3519
   63DOPC   C33 8648   0.912   5.570   5.017  1.1125  0.5569 -0.0904
   63DOPC   H3X 8649   0.983   5.650   4.989  2.1897 -0.2926  0.1717
   63DOPC   H3Y 8650   0.837   5.620   5.083 -1.1060  0.1107 -2.1298
   63DOPC   C34 8651   0.843   5.511   4.891  0.0987 -0.0634 -0.7213
   63DOPC   H4X 8652   0.773   5.586   4.849 -0.3787 -1.1051 -1.8616
   63DOPC   H4Y 8653   0.770   5.435   4.927  0.5837 -0.3810 -0.3928
   63DOPC   C35 8654   0.932   5.447   4.791  0.5261  0.5647  0.1419
   63DOPC   H5X 8655   0.996   5.375   4.847  1.1477 -1.2950 -2.7267
   63DOPC   H5Y 8656   0.995   5.525   4.743 -1.5338  0.5527 -2.8525
   63DOPC   C36 8657   0.858   5.378   4.678 -0.3771 -0.0066  0.3832
   63DOPC   H6X 8658   0.794   5.294   4.714  0.9085 -0.9029  0.6555
   63DOPC   H6Y 8659   0.789   5.450   4.628 -0.6426 -1.9519 -2.2640
   63DOPC   C37 8660   0.947   5.313   4.570  0.4106  0.3252  0.3643
   63DOPC   H7X 8661   1.017   5.380   4.515  0.1064 -0.1871 -0.6676
   63DOPC   H7Y 8662   1.019   5.255   4.632  0.2112 -0.5185 -0.1856
   63DOPC   C38 8663   0.864   5.236   4.458 -0.1974 -0.5586 -0.3422
   63DOPC   H8X 8664   0.811   5.322   4.411 -1.9900 -0.2189  2.1269
   63DOPC   H8Y 8665   0.777   5.179   4.496 -0.9264  0.0646 -1.0448
   63DOPC   C39 8666   0.948   5.155   4.361 -1.2663 -0.6342 -0.2792
   63DOPC   H9X 8667   1.004   5.211   4.284 -2.7904 -1.1574 -1.8389
   63DOPC  C310 8668   0.962   5.020   4.364 -0.4546 -0.2428 -0.1640
   63DOPC  H10X 8669   1.006   4.978   4.273 -1.4731 -3.1834  0.6041
   63DOPC  C311 8670   0.884   4.929   4.456 -0.3612  0.1449 -0.1721
   63DOPC  H11X 8671   0.850   4.995   4.538  1.7233  1.1732 -0.0736
   63DOPC  H11Y 8672   0.945   4.847   4.500 -3.5728 -1.9424  0.7861
   63DOPC  C312 8673   0.766   4.854   4.391  0.3218 -0.0114 -0.5509
   63DOPC  H12X 8674   0.719   4.781   4.461 -0.9532  2.0568  0.8541
   63DOPC  H12Y 8675   0.794   4.792   4.304 -1.6649 -1.6519 -0.1182
   63DOPC  C313 8676   0.655   4.946   4.352  0.1000  0.0181 -0.1543
   63DOPC  H13X 8677   0.631   5.006   4.442 -0.8957 -0.0597 -0.3582
   63DOPC  H13Y 8678   0.689   5.015   4.272  2.5414  0.3576  1.0601
   63DOPC  C314 8679   0.535   4.874   4.293  0.2873  0.2455 -0.6095
   63DOPC  H14X 8680   0.573   4.799   4.221  0.5635 -1.6387  1.4198
   63DOPC  H14Y 8681   0.504   4.805   4.374 -0.7829  0.2889 -0.9595
   63DOPC  C315 8682   0.430   4.974   4.233  0.5286  0.1383 -0.2717
   63DOPC  H15X 8683   0.490   5.038   4.165  0.0654 -0.3938 -1.1885
   63DOPC  H15Y 8684   0.390   5.032   4.319 -2.0427 -2.2150  0.2894
   63DOPC  C316 8685   0.315   4.908   4.160  0.8476  0.2723  0.1057
   63DOPC  H16X 8686   0.257   4.983   4.101 -1.1517 -1.1918  0.0906
   63DOPC  H16Y 8687   0.352   4.841   4.080  1.0825  0.4213  0.0895
   63DOPC  C317 8688   0.202   4.840   4.245  0.2635  0.1555 -0.4415
   63DOPC  H17X 8689   0.265   4.774   4.309  2.5085  0.8966 -1.7533
   63DOPC  H17Y 8690   0.156   4.920   4.306  1.5719 -0.6283  1.6585
   63DOPC  C318 8691   0.086   4.772   4.179  0.8535  0.0586  0.1049
   63DOPC  H18X 8692   0.047   4.855   4.117 -0.1541  1.1289  2.0888
   63DOPC  H18Y 8693   0.115   4.679   4.125 -0.3362 -0.2092 -0.0937
   63DOPC  H18Z 8694   0.000   4.742   4.243 -0.4567  1.0625 -1.1215
   64DOPC     N 8695   6.419   5.475   6.513 -0.6227 -0.0126 -0.5302
   64DOPC   C12 8696   6.355   5.506   6.374 -0.1472 -0.0845 -0.4120
   64DOPC  H12A 8697   6.404   5.594   6.335 -0.7832  1.3477  1.8482
   64DOPC  H12B 8698   6.257   5.540   6.402  0.5008 -0.0203  2.0587
   64DOPC   C13 8699   6.319   5.407   6.601  0.8529  0.4344  0.4044
   64DOPC  H13A 8700   6.363   5.411   6.700  0.8108 -2.3742  0.6057
   64DOPC  H13B 8701   6.221   5.452   6.601  0.1751 -0.9986 -0.2052
   64DOPC  H13C 8702   6.305   5.306   6.567 -3.1279  0.1297  2.4008
   64DOPC   C14 8703   6.457   5.611   6.571  0.4080  0.9675  0.8513
   64DOPC  H14A 8704   6.480   5.587   6.674 -1.5086 -1.2220  0.8584
   64DOPC  H14B 8705   6.541   5.657   6.522  0.3633 -1.1802 -1.3915
   64DOPC  H14C 8706   6.377   5.683   6.582  1.9884  3.6277 -3.1341
   64DOPC   C15 8707   6.540   5.384   6.502 -0.3518 -1.0557  0.6029
   64DOPC  H15A 8708   6.603   5.424   6.425 -2.0831  1.0029  0.1590
   64DOPC  H15B 8709   6.511   5.287   6.465  1.9285 -0.6122 -2.7846
   64DOPC  H15C 8710   6.586   5.369   6.599 -1.6893 -1.9944  1.1251
   64DOPC   C11 8711   6.350   5.395   6.266 -0.3529  0.6590  0.3552
   64DOPC  H11A 8712   6.301   5.435   6.175  0.2090 -0.2208 -0.3560
   64DOPC  H11B 8713   6.450   5.370   6.224 -1.0473  0.1739 -1.0898
   64DOPC     P 8714   6.137   5.237   6.325 -0.0583  0.0897  0.0565
   64DOPC   O13 8715   6.063   5.351   6.394  0.1166  0.2232  0.2981
   64DOPC   O14 8716   6.137   5.110   6.399  0.4488 -0.6198  0.3458
   64DOPC   O12 8717   6.290   5.271   6.304 -0.8410 -0.0329  0.0781
   64DOPC   O11 8718   6.097   5.218   6.173  0.7497 -0.0439  0.2152
   64DOPC    C1 8719   6.139   5.099   6.110  0.2939 -0.3322 -0.9320
   64DOPC    HA 8720   6.061   5.033   6.068  1.6634 -1.5641 -1.6449
   64DOPC    HB 8721   6.191   5.029   6.180  1.2252  1.3067  0.0824
   64DOPC    C2 8722   6.241   5.130   6.006  0.0573 -0.5711  1.1108
   64DOPC    HS 8723   6.332   5.174   6.052  1.1092 -1.5324  0.0241
   64DOPC   O21 8724   6.187   5.220   5.908  0.2290 -0.3075 -0.5063
   64DOPC   C21 8725   6.275   5.258   5.814  0.5093 -0.0706 -0.0533
   64DOPC   O22 8726   6.394   5.264   5.832 -0.0217  0.0704 -0.6786
   64DOPC   C22 8727   6.204   5.319   5.691  0.0130 -0.1043  0.5809
   64DOPC   H2R 8728   6.181   5.426   5.708  0.3249  0.0779 -0.0833
   64DOPC   H2S 8729   6.101   5.277   5.691 -0.4532  0.9836 -0.8918
   64DOPC    C3 8730   6.281   4.995   5.928  0.6428 -0.5047 -0.0825
   64DOPC    HX 8731   6.277   4.922   6.011 -1.6361  0.1052  0.3986
   64DOPC    HY 8732   6.382   4.996   5.881  1.5697  1.6995  1.7467
   64DOPC   O31 8733   6.173   4.958   5.836  0.1034  0.9078 -0.2577
   64DOPC   C31 8734   6.157   4.826   5.804 -0.0902 -0.3642  0.6486
   64DOPC   O32 8735   6.221   4.738   5.857 -0.1966  0.3177 -0.8723
   64DOPC   C32 8736   6.062   4.804   5.689 -0.2819 -0.1250 -0.1154
   64DOPC   H2X 8737   5.968   4.765   5.735  0.2597  1.6692  2.7612
   64DOPC   H2Y 8738   6.037   4.903   5.646 -0.7879 -0.6297 -1.0188
   64DOPC   C23 8739   6.280   5.294   5.554 -0.1024 -0.6960  0.5740
   64DOPC   H3R 8740   6.298   5.185   5.544  1.6805 -0.3448 -0.4207
   64DOPC   H3S 8741   6.381   5.337   5.564  0.5513 -1.7133 -1.2610
   64DOPC   C24 8742   6.211   5.337   5.425 -0.2539  0.5239  0.0606
   64DOPC   H4R 8743   6.212   5.448   5.421  2.2675  0.5952  0.6992
   64DOPC   H4S 8744   6.112   5.287   5.435 -0.3404  0.9792  1.6828
   64DOPC   C25 8745   6.283   5.276   5.310 -0.2247  0.0032 -0.0681
   64DOPC   H5R 8746   6.299   5.168   5.333 -2.9713 -0.0647  2.0414
   64DOPC   H5S 8747   6.384   5.322   5.301 -0.0099 -0.3363  0.5128
   64DOPC   C26 8748   6.203   5.277   5.171 -0.5042 -0.9309 -0.1154
   64DOPC   H6R 8749   6.172   5.379   5.141 -1.1487 -1.0246  0.2181
   64DOPC   H6S 8750   6.115   5.211   5.186  0.6242 -2.5339 -0.1938
   64DOPC   C27 8751   6.282   5.211   5.061 -0.3401  1.2967  0.0734
   64DOPC   H7R 8752   6.284   5.104   5.091 -0.7387  0.9636 -1.0242
   64DOPC   H7S 8753   6.389   5.238   5.054  0.8669 -2.1955  2.1769
   64DOPC   C28 8754   6.215   5.224   4.917 -0.1255  0.0971 -0.7527
   64DOPC   H8R 8755   6.213   5.324   4.869 -0.5255  0.1789 -0.5645
   64DOPC   H8S 8756   6.110   5.200   4.943  0.3418 -2.2540 -0.7908
   64DOPC   C29 8757   6.265   5.111   4.822  0.0052 -0.0877 -0.0822
   64DOPC   H9R 8758   6.228   5.013   4.854  0.1597  0.2968  1.3906
   64DOPC  C210 8759   6.304   5.130   4.693 -0.3597 -0.5691 -0.0983
   64DOPC  H10R 8760   6.325   5.040   4.633 -2.5187 -1.1254 -0.0877
   64DOPC  C211 8761   6.329   5.264   4.617 -0.3840 -0.0327  0.4942
   64DOPC  H11R 8762   6.267   5.344   4.663 -1.8098  0.1124 -1.5621
   64DOPC  H11S 8763   6.297   5.246   4.512  1.0435 -0.5930  0.1395
   64DOPC  C212 8764   6.479   5.305   4.615 -0.3565 -0.0592  0.1353
   64DOPC  H12R 8765   6.515   5.319   4.720  1.0803  2.0146 -0.5839
   64DOPC  H12S 8766   6.502   5.396   4.556  0.8913  0.4414  1.3444
   64DOPC  C213 8767   6.565   5.197   4.549 -0.6825  0.0918 -1.0442
   64DOPC  H13R 8768   6.511   5.175   4.455 -0.3076  1.0317 -1.4958
   64DOPC  H13S 8769   6.576   5.107   4.614  1.2663  0.1566 -1.2226
   64DOPC  C214 8770   6.722   5.236   4.532 -1.0557  0.2932 -0.0623
   64DOPC  H14R 8771   6.737   5.323   4.465  2.4961  0.2045  0.4414
   64DOPC  H14S 8772   6.784   5.153   4.492  1.5826  0.3646  3.4617
   64DOPC  C215 8773   6.793   5.291   4.659 -0.0665 -0.5964 -0.3349
   64DOPC  H15R 8774   6.801   5.217   4.741 -1.0849 -0.7123 -0.3213
   64DOPC  H15S 8775   6.724   5.371   4.693  0.6093 -0.2382  0.2081
   64DOPC  C216 8776   6.921   5.355   4.621  0.1424  0.3437 -0.1804
   64DOPC  H16R 8777   6.923   5.435   4.543 -0.5249 -0.4487 -1.0365
   64DOPC  H16S 8778   6.977   5.273   4.572 -0.0429 -0.0945  0.3346
   64DOPC  C217 8779   6.993   5.407   4.737  0.2141  0.4130 -0.4853
   64DOPC  H17R 8780   6.989   5.335   4.821 -4.4646  0.9435  0.0129
   64DOPC  H17S 8781   6.937   5.490   4.787  0.3750  0.5792 -0.5790
   64DOPC  C218 8782   7.134   5.467   4.728  0.3356 -0.5592  0.3407
   64DOPC  H18R 8783   7.143   5.536   4.641 -0.5968  0.2091  0.8363
   64DOPC  H18S 8784   7.215   5.392   4.707  1.6703  0.8313  0.3546
   64DOPC  H18T 8785   7.167   5.522   4.818  0.8358 -0.7239  0.2650
   64DOPC   C33 8786   6.100   4.721   5.577  0.0130 -0.0922  0.1026
   64DOPC   H3X 8787   6.015   4.692   5.512 -0.5577  0.7588  0.4569
   64DOPC   H3Y 8788   6.143   4.628   5.619 -2.3467 -1.7024 -0.8281
   64DOPC   C34 8789   6.204   4.788   5.486  0.4622  0.1641  0.3476
   64DOPC   H4X 8790   6.308   4.791   5.527  0.7706 -1.9171 -0.1619
   64DOPC   H4Y 8791   6.167   4.889   5.459  1.5458  0.5344  0.1738
   64DOPC   C35 8792   6.205   4.714   5.339  0.4084  0.0171  0.3963
   64DOPC   H5X 8793   6.101   4.721   5.301  0.9516  2.0544 -0.8541
   64DOPC   H5Y 8794   6.226   4.610   5.371 -2.9993 -0.9815 -0.2180
   64DOPC   C36 8795   6.295   4.768   5.227 -0.0176 -0.2878  0.2879
   64DOPC   H6X 8796   6.276   4.875   5.205 -4.7432 -0.6403  1.4905
   64DOPC   H6Y 8797   6.395   4.763   5.275  0.3790 -0.8649 -0.5881
   64DOPC   C37 8798   6.292   4.702   5.090 -0.2063 -0.3645 -0.3213
   64DOPC   H7X 8799   6.303   4.594   5.115  0.2286  0.2855  2.7559
   64DOPC   H7Y 8800   6.188   4.714   5.054  0.2021  1.7676 -0.9179
   64DOPC   C38 8801   6.400   4.760   4.991  0.2023  0.6958 -0.2469
   64DOPC   H8X 8802   6.379   4.868   4.975 -1.3037  0.5117  0.3400
   64DOPC   H8Y 8803   6.394   4.711   4.892  2.3085 -0.4118  0.1106
   64DOPC   C39 8804   6.540   4.734   5.045  0.1893 -0.1929 -0.7647
   64DOPC   H9X 8805   6.570   4.631   5.024  0.4139  0.2649 -2.8636
   64DOPC  C310 8806   6.613   4.820   5.113  0.2232  0.3795 -0.6983
   64DOPC  H10X 8807   6.708   4.788   5.158 -0.1809  0.1115 -0.0197
   64DOPC  C311 8808   6.570   4.957   5.153  0.1788  0.3893  0.5561
   64DOPC  H11X 8809   6.573   4.959   5.264 -1.5267 -0.4524  0.6503
   64DOPC  H11Y 8810   6.472   4.989   5.112  0.7355  1.2182 -0.1547
   64DOPC  C312 8811   6.677   5.049   5.093 -0.0161  1.1356  0.6206
   64DOPC  H12X 8812   6.638   5.153   5.103 -0.5744  1.0256 -0.3293
   64DOPC  H12Y 8813   6.693   5.028   4.986 -0.2559 -1.8472  1.0752
   64DOPC  C313 8814   6.814   5.055   5.161 -0.0613 -0.2421 -0.1939
   64DOPC  H13X 8815   6.812   5.086   5.267  2.7199 -0.6896  0.0619
   64DOPC  H13Y 8816   6.855   4.952   5.161  2.6610  0.7429  0.9811
   64DOPC  C314 8817   6.912   5.147   5.083  0.2116  0.2190 -0.4440
   64DOPC  H14X 8818   6.915   5.107   4.979  1.3669  0.5998 -0.5795
   64DOPC  H14Y 8819   6.866   5.247   5.086 -0.1109  0.0419  1.2623
   64DOPC  C315 8820   7.055   5.152   5.138 -0.5978 -0.2816 -0.3291
   64DOPC  H15X 8821   7.115   5.063   5.112 -0.1985  0.2622 -1.3188
   64DOPC  H15Y 8822   7.040   5.151   5.248 -2.5775  1.0818 -0.5197
   64DOPC  C316 8823   7.135   5.287   5.112  0.4885  0.4912  0.8908
   64DOPC  H16X 8824   7.227   5.281   5.174  1.3408  0.9612 -0.2803
   64DOPC  H16Y 8825   7.186   5.286   5.013  0.5323 -0.4896  0.9157
   64DOPC  C317 8826   7.064   5.412   5.161  0.3898  0.5388  0.3091
   64DOPC  H17X 8827   6.967   5.425   5.108  0.8216  1.1466 -0.3544
   64DOPC  H17Y 8828   7.025   5.403   5.264 -1.2592 -1.3891 -0.4016
   64DOPC  C318 8829   7.138   5.542   5.135 -0.1841 -0.5706 -0.1591
   64DOPC  H18X 8830   7.063   5.624   5.144  0.0816 -0.4975  1.7645
   64DOPC  H18Y 8831   7.211   5.552   5.218 -0.5390  0.2046  0.0649
   64DOPC  H18Z 8832   7.184   5.531   5.035  0.0036 -0.4755 -0.0826
   65DOPC     N 8833   3.195   2.802   1.653 -0.2747 -0.0584 -0.7801
   65DOPC   C12 8834   3.223   2.693   1.756 -0.6569 -0.8418  0.3783
   65DOPC  H12A 8835   3.316   2.694   1.811 -1.0154 -2.1248  1.0452
   65DOPC  H12B 8836   3.229   2.597   1.706  0.8228 -1.1482  1.0998
   65DOPC   C13 8837   3.215   2.946   1.693 -0.4713  0.8201  0.4119
   65DOPC  H13A 8838   3.154   2.975   1.778  0.4166  0.3292  1.2397
   65DOPC  H13B 8839   3.316   2.957   1.729  0.9044 -2.3376 -1.9839
   65DOPC  H13C 8840   3.196   3.008   1.607 -3.8828  0.3091  0.6778
   65DOPC   C14 8841   3.056   2.780   1.595 -0.3679 -0.4672  0.3686
   65DOPC  H14A 8842   3.051   2.676   1.564  3.8482 -1.1528  1.3099
   65DOPC  H14B 8843   2.988   2.817   1.670  1.1782 -1.7297  2.5104
   65DOPC  H14C 8844   3.056   2.837   1.503  0.0795  2.2761  1.9727
   65DOPC   C15 8845   3.281   2.791   1.537 -0.6891  0.4082  0.1635
   65DOPC  H15A 8846   3.383   2.787   1.572  0.3896  0.9161 -2.6192
   65DOPC  H15B 8847   3.269   2.877   1.473 -1.3818 -0.1504 -0.4794
   65DOPC  H15C 8848   3.251   2.698   1.491 -2.3153 -0.7980  3.3828
   65DOPC   C11 8849   3.111   2.669   1.862  0.0216 -0.2954  0.3537
   65DOPC  H11A 8850   3.015   2.629   1.824 -1.2165 -0.3185  3.2449
   65DOPC  H11B 8851   3.153   2.580   1.914  2.8327  1.2695  0.9964
   65DOPC     P 8852   2.968   2.770   2.064 -0.0271 -0.4664 -0.4027
   65DOPC   O13 8853   2.896   2.642   2.056  0.4646  0.2144  0.3274
   65DOPC   O14 8854   2.893   2.898   2.070  0.5335 -0.3067  0.1603
   65DOPC   O12 8855   3.084   2.771   1.956  0.3199  0.1265  0.4993
   65DOPC   O11 8856   3.065   2.760   2.198  0.1320  0.3382  0.3347
   65DOPC    C1 8857   3.082   2.882   2.272 -0.5327  0.5816  1.2817
   65DOPC    HA 8858   2.982   2.912   2.313 -0.6487  0.8905  0.7847
   65DOPC    HB 8859   3.121   2.962   2.206  1.2269 -0.1113  1.4279
   65DOPC    C2 8860   3.188   2.862   2.382  0.7700 -0.2648 -0.4104
   65DOPC    HS 8861   3.269   2.817   2.321 -0.6590 -1.7768 -1.2820
   65DOPC   O21 8862   3.122   2.770   2.474 -0.1359 -0.8099  0.3108
   65DOPC   C21 8863   3.204   2.691   2.537 -0.7074  0.7420 -0.6401
   65DOPC   O22 8864   3.325   2.678   2.511 -0.4018 -0.7111  0.1587
   65DOPC   C22 8865   3.125   2.622   2.647 -0.9717  0.2195 -0.4316
   65DOPC   H2R 8866   3.064   2.539   2.606  0.4292 -1.2148  0.3291
   65DOPC   H2S 8867   3.052   2.701   2.678 -0.7394 -0.6385  2.5426
   65DOPC    C3 8868   3.227   2.993   2.458  0.4530  0.0334  0.3910
   65DOPC    HX 8869   3.137   3.026   2.514  0.4486  1.3051 -0.3339
   65DOPC    HY 8870   3.239   3.066   2.376  0.1699  0.9041  1.1132
   65DOPC   O31 8871   3.343   2.978   2.555  0.5522  0.3158 -0.4148
   65DOPC   C31 8872   3.459   3.035   2.510 -0.1923  0.2284  0.0252
   65DOPC   O32 8873   3.475   3.089   2.405  0.1067  0.2830  0.2254
   65DOPC   C32 8874   3.559   3.003   2.615 -0.6233  0.1253 -0.0947
   65DOPC   H2X 8875   3.588   2.896   2.622  0.9909  0.5830  0.8800
   65DOPC   H2Y 8876   3.651   3.054   2.580  0.3047  0.5353  2.6906
   65DOPC   C23 8877   3.208   2.572   2.772 -0.0027 -0.1061 -0.3367
   65DOPC   H3R 8878   3.286   2.500   2.741  0.9002  0.2911  0.9375
   65DOPC   H3S 8879   3.134   2.513   2.830  1.3505 -0.7146  0.8132
   65DOPC   C24 8880   3.285   2.687   2.846  0.1212 -0.2570 -0.0110
   65DOPC   H4R 8881   3.209   2.762   2.879 -0.7273 -1.0322 -0.1690
   65DOPC   H4S 8882   3.354   2.731   2.771 -1.1590 -1.0606 -1.7061
   65DOPC   C25 8883   3.355   2.634   2.967  0.1306  0.0856  0.0931
   65DOPC   H5R 8884   3.283   2.594   3.042 -0.6633 -1.5634 -1.4750
   65DOPC   H5S 8885   3.413   2.717   3.012  1.1684 -0.3645 -0.3911
   65DOPC   C26 8886   3.452   2.517   2.934  0.8292 -0.0915  0.2370
   65DOPC   H6R 8887   3.487   2.543   2.832  2.1974  0.1509  0.7471
   65DOPC   H6S 8888   3.389   2.426   2.923  0.2681  0.2348  0.6817
   65DOPC   C27 8889   3.566   2.510   3.035  0.0803 -0.1677  0.3704
   65DOPC   H7R 8890   3.625   2.603   3.031  2.4315 -1.6270 -1.8756
   65DOPC   H7S 8891   3.641   2.440   2.993 -0.2639 -0.4733  0.2551
   65DOPC   C28 8892   3.523   2.466   3.174 -0.0249  0.4147 -0.0942
   65DOPC   H8R 8893   3.442   2.532   3.211 -0.4114  0.6365 -1.2818
   65DOPC   H8S 8894   3.611   2.490   3.238  0.0708  0.5765 -0.2849
   65DOPC   C29 8895   3.482   2.320   3.189 -0.1160 -0.1224 -0.3477
   65DOPC   H9R 8896   3.449   2.267   3.098  0.9849  0.3229 -1.0306
   65DOPC  C210 8897   3.521   2.249   3.301 -0.3626  0.1969 -0.2403
   65DOPC  H10R 8898   3.509   2.139   3.304  0.3916  0.0026 -2.3765
   65DOPC  C211 8899   3.574   2.315   3.428  0.0794 -0.1860  0.9031
   65DOPC  H11R 8900   3.562   2.425   3.437  2.7425  0.1669  0.9925
   65DOPC  H11S 8901   3.682   2.288   3.428 -0.0060 -0.7004 -1.2837
   65DOPC  C212 8902   3.513   2.253   3.553  0.0327  0.6628  0.0169
   65DOPC  H12R 8903   3.581   2.279   3.637  1.0620 -0.7944 -0.3334
   65DOPC  H12S 8904   3.499   2.143   3.549 -0.9040  0.8234 -2.2282
   65DOPC  C213 8905   3.369   2.313   3.580  0.1555  0.9452  0.1922
   65DOPC  H13R 8906   3.299   2.239   3.535 -0.1732 -1.2019  3.8530
   65DOPC  H13S 8907   3.374   2.408   3.524  1.0027  1.8017  1.6584
   65DOPC  C214 8908   3.352   2.327   3.728 -0.3604 -0.0300  0.0221
   65DOPC  H14R 8909   3.401   2.417   3.772 -0.1576  0.9307 -2.0469
   65DOPC  H14S 8910   3.397   2.236   3.774 -1.0980  0.6162  2.1114
   65DOPC  C215 8911   3.205   2.338   3.763 -0.2494  0.6023  0.8976
   65DOPC  H15R 8912   3.152   2.250   3.721 -1.8704  2.5308 -1.4427
   65DOPC  H15S 8913   3.166   2.422   3.701 -1.1857 -0.0079  0.6355
   65DOPC  C216 8914   3.178   2.369   3.917 -0.2339  0.4076  0.4391
   65DOPC  H16R 8915   3.225   2.462   3.955  0.0073  0.2324  0.5726
   65DOPC  H16S 8916   3.221   2.292   3.984 -1.7789 -0.6822  0.2358
   65DOPC  C217 8917   3.028   2.382   3.944 -0.2202  0.3993 -0.2548
   65DOPC  H17R 8918   2.984   2.280   3.935 -0.9384  0.7564 -0.8496
   65DOPC  H17S 8919   2.974   2.427   3.859 -0.4141 -0.4394 -0.5810
   65DOPC  C218 8920   2.969   2.444   4.079  0.1504  0.8557 -0.1485
   65DOPC  H18R 8921   2.990   2.553   4.078 -2.2546  1.3917  1.3168
   65DOPC  H18S 8922   3.025   2.392   4.160  1.7086  1.6962 -0.6433
   65DOPC  H18T 8923   2.862   2.412   4.081  0.0759  1.1124  1.5047
   65DOPC   C33 8924   3.519   3.050   2.753  0.5979 -0.1339 -0.3303
   65DOPC   H3X 8925   3.416   3.013   2.775  1.1528 -1.5017  0.1196
   65DOPC   H3Y 8926   3.518   3.160   2.766 -0.0993 -0.1165 -0.4895
   65DOPC   C34 8927   3.602   2.983   2.868  0.1612 -0.0237  0.2662
   65DOPC   H4X 8928   3.710   3.008   2.871  0.2234 -0.3280  0.6443
   65DOPC   H4Y 8929   3.601   2.880   2.826 -1.9003  0.0292  0.0855
   65DOPC   C35 8930   3.544   2.991   3.015  1.0368  0.5110  0.3189
   65DOPC   H5X 8931   3.443   2.948   2.997  2.4594 -2.5830 -1.0629
   65DOPC   H5Y 8932   3.534   3.092   3.059 -0.7417 -0.0562  1.2860
   65DOPC   C36 8933   3.625   2.904   3.108  0.4397 -0.1160  0.4043
   65DOPC   H6X 8934   3.566   2.869   3.195  1.8966 -1.2278  0.9914
   65DOPC   H6Y 8935   3.645   2.809   3.055  0.1067 -0.6218  1.1620
   65DOPC   C37 8936   3.754   2.977   3.150  0.2798 -0.1034 -0.1598
   65DOPC   H7X 8937   3.821   3.007   3.067  1.8916 -0.1300  1.0830
   65DOPC   H7Y 8938   3.714   3.069   3.198  1.3151 -0.5414  1.6197
   65DOPC   C38 8939   3.847   2.906   3.249  0.1180 -0.4565  0.0303
   65DOPC   H8X 8940   3.786   2.892   3.341 -1.2534 -1.1154 -0.9480
   65DOPC   H8Y 8941   3.936   2.959   3.288 -0.6649  1.1859 -0.3248
   65DOPC   C39 8942   3.886   2.769   3.197  0.2144 -0.8933 -0.3369
   65DOPC   H9X 8943   3.806   2.709   3.153 -0.8288  0.9099 -0.9916
   65DOPC  C310 8944   4.001   2.704   3.200 -0.0457  0.4532 -0.2550
   65DOPC  H10X 8945   3.996   2.609   3.146 -1.1553 -0.6291  1.6496
   65DOPC  C311 8946   4.134   2.749   3.245 -0.0092 -0.9326  0.6085
   65DOPC  H11X 8947   4.145   2.858   3.265  0.7265 -0.8858  0.0006
   65DOPC  H11Y 8948   4.207   2.711   3.170 -0.4823 -1.1295  0.2463
   65DOPC  C312 8949   4.181   2.679   3.374  0.0489 -0.6266  0.0388
   65DOPC  H12X 8950   4.208   2.575   3.347  3.2962 -0.2222  1.2646
   65DOPC  H12Y 8951   4.110   2.668   3.459  1.1259 -2.0464  0.7989
   65DOPC  C313 8952   4.316   2.744   3.426  0.3019  0.3125 -0.3030
   65DOPC  H13X 8953   4.396   2.741   3.348 -0.5399  0.0454 -1.1758
   65DOPC  H13Y 8954   4.306   2.850   3.458 -1.5721 -0.0293  0.3394
   65DOPC  C314 8955   4.358   2.673   3.556  0.1300  0.6315  0.0273
   65DOPC  H14X 8956   4.289   2.702   3.638 -0.0183 -0.2083  0.2068
   65DOPC  H14Y 8957   4.355   2.564   3.534  0.3173  0.7038 -0.3660
   65DOPC  C315 8958   4.510   2.705   3.585  0.5125 -0.2527 -0.0260
   65DOPC  H15X 8959   4.562   2.701   3.487  0.8868  2.6463 -0.0389
   65DOPC  H15Y 8960   4.558   2.633   3.654  0.7312 -0.2817 -0.2088
   65DOPC  C316 8961   4.538   2.854   3.630 -0.6039  1.1401 -0.1761
   65DOPC  H16X 8962   4.643   2.891   3.628  0.9732 -2.8088 -3.1357
   65DOPC  H16Y 8963   4.483   2.920   3.560  1.4080  0.1865 -2.8037
   65DOPC  C317 8964   4.480   2.879   3.770 -0.5427 -0.7509 -0.1901
   65DOPC  H17X 8965   4.369   2.869   3.762 -0.6562  0.3591 -0.1875
   65DOPC  H17Y 8966   4.515   2.802   3.842  0.2994  1.1934  1.6101
   65DOPC  C318 8967   4.523   3.013   3.822 -0.1259 -0.3529 -0.1064
   65DOPC  H18X 8968   4.634   3.015   3.824 -0.1213  2.2198  0.1172
   65DOPC  H18Y 8969   4.489   3.094   3.754  1.0706  1.0347  0.9064
   65DOPC  H18Z 8970   4.497   3.033   3.928 -0.2289  0.1076 -0.2159
   66DOPC     N 8971   1.699   4.473   6.183 -0.3661  0.4590  0.5357
   66DOPC   C12 8972   1.651   4.476   6.042  0.2605 -0.1025 -0.1473
   66DOPC  H12A 8973   1.585   4.392   6.028  2.1269 -1.8404  0.9199
   66DOPC  H12B 8974   1.735   4.472   5.974 -0.5123  0.9823 -1.2032
   66DOPC   C13 8975   1.740   4.333   6.217 -0.0762 -0.5206 -0.6271
   66DOPC  H13A 8976   1.658   4.267   6.193 -1.4455  1.0933 -0.5008
   66DOPC  H13B 8977   1.821   4.291   6.159  1.2191 -1.2219  1.5826
   66DOPC  H13C 8978   1.758   4.326   6.323 -0.8081 -0.4233 -0.4922
   66DOPC   C14 8979   1.581   4.505   6.275 -0.2382 -0.5015  0.0819
   66DOPC  H14A 8980   1.559   4.609   6.257 -1.9091 -0.5207  1.7497
   66DOPC  H14B 8981   1.496   4.440   6.258 -1.1908  0.0076  2.4549
   66DOPC  H14C 8982   1.617   4.507   6.377  2.0844  2.8110 -0.6642
   66DOPC   C15 8983   1.812   4.573   6.195 -0.0242 -0.3490 -0.3185
   66DOPC  H15A 8984   1.776   4.675   6.189  0.3460 -0.1335  0.8888
   66DOPC  H15B 8985   1.885   4.555   6.117  0.3802  0.0620 -0.0436
   66DOPC  H15C 8986   1.872   4.561   6.284 -1.6304  2.7853  1.3265
   66DOPC   C11 8987   1.576   4.607   5.995 -0.3460  0.0707 -0.3928
   66DOPC  H11A 8988   1.526   4.589   5.897 -2.5948  2.5093  0.2072
   66DOPC  H11B 8989   1.486   4.611   6.061 -0.4524 -0.5048 -0.4931
   66DOPC     P 8990   1.752   4.742   5.888 -0.0402  0.3559  0.3537
   66DOPC   O13 8991   1.817   4.610   5.860 -0.3962  0.0429  0.3235
   66DOPC   O14 8992   1.843   4.852   5.927  0.3456  0.1764 -0.8480
   66DOPC   O12 8993   1.649   4.724   5.996 -0.0861 -0.3466  0.2695
   66DOPC   O11 8994   1.660   4.789   5.772 -0.3447  0.3828  0.2825
   66DOPC    C1 8995   1.698   4.882   5.669 -0.4410 -0.7098 -0.5192
   66DOPC    HA 8996   1.806   4.901   5.651 -0.7038  1.3564 -0.1306
   66DOPC    HB 8997   1.646   4.978   5.690 -0.1800 -0.2126 -2.0790
   66DOPC    C2 8998   1.639   4.831   5.540 -0.4560  0.0809 -0.6386
   66DOPC    HS 8999   1.531   4.814   5.557 -0.3410 -2.3617 -1.8589
   66DOPC   O21 9000   1.706   4.710   5.500 -0.4521  0.7286 -0.1108
   66DOPC   C21 9001   1.662   4.594   5.545  0.2870 -0.0646  0.1632
   66DOPC   O22 9002   1.563   4.576   5.614  0.1480  0.0688 -0.4499
   66DOPC   C22 9003   1.762   4.484   5.502 -0.4554  0.4177 -0.4744
   66DOPC   H2R 9004   1.746   4.408   5.581 -1.0660  1.6468  0.6079
   66DOPC   H2S 9005   1.859   4.537   5.520 -1.1503  1.5222  0.1037
   66DOPC    C3 9006   1.651   4.928   5.411 -0.4313 -0.4019 -0.7405
   66DOPC    HX 9007   1.753   4.970   5.398 -1.1057  1.2930 -0.7406
   66DOPC    HY 9008   1.577   5.009   5.423 -1.8101 -1.9242  1.9168
   66DOPC   O31 9009   1.612   4.862   5.290  0.4967 -0.7955 -0.3405
   66DOPC   C31 9010   1.623   4.941   5.187 -0.4296  0.6943  0.6563
   66DOPC   O32 9011   1.668   5.056   5.181  0.7317  0.3522  0.0110
   66DOPC   C32 9012   1.595   4.849   5.064 -0.2835  0.9331  1.1208
   66DOPC   H2X 9013   1.602   4.916   4.975 -1.7469 -0.1721  0.1235
   66DOPC   H2Y 9014   1.672   4.770   5.064  0.0863  1.2871  0.6935
   66DOPC   C23 9015   1.749   4.413   5.363 -0.3467 -0.0191 -0.9621
   66DOPC   H3R 9016   1.826   4.333   5.354  0.9725  0.6765  2.4572
   66DOPC   H3S 9017   1.764   4.484   5.279  1.9857  2.8956  1.6577
   66DOPC   C24 9018   1.616   4.343   5.360  0.1335  0.2211 -0.0063
   66DOPC   H4R 9019   1.533   4.398   5.410  0.9012  0.7484  0.7062
   66DOPC   H4S 9020   1.613   4.249   5.419  1.4509 -0.5923 -1.1682
   66DOPC   C25 9021   1.565   4.330   5.217  0.3426  0.2411  0.0365
   66DOPC   H5R 9022   1.648   4.277   5.165  2.3821  2.8032  0.4769
   66DOPC   H5S 9023   1.538   4.430   5.176  0.3006  0.4882  0.6604
   66DOPC   C26 9024   1.438   4.251   5.200 -0.1141 -0.1591  0.2123
   66DOPC   H6R 9025   1.361   4.307   5.257  0.9984 -0.5295  2.1563
   66DOPC   H6S 9026   1.446   4.151   5.247  3.8619 -0.9007 -1.6732
   66DOPC   C27 9027   1.379   4.248   5.054 -0.4390 -0.3039 -0.4755
   66DOPC   H7R 9028   1.351   4.352   5.026  0.2479  0.1811  0.5877
   66DOPC   H7S 9029   1.285   4.190   5.067  0.1622 -0.7785  2.4164
   66DOPC   C28 9030   1.478   4.193   4.950  1.0195 -0.3312  0.5053
   66DOPC   H8R 9031   1.516   4.095   4.985 -2.0409 -1.8070  0.0944
   66DOPC   H8S 9032   1.563   4.264   4.947 -0.8841  2.1180 -2.4828
   66DOPC   C29 9033   1.403   4.181   4.816 -0.3379  0.4233  0.7119
   66DOPC   H9R 9034   1.308   4.125   4.822  1.0344 -2.1010  0.1348
   66DOPC  C210 9035   1.419   4.234   4.687  0.3881  0.2650 -0.0734
   66DOPC  H10R 9036   1.353   4.199   4.607  1.0880 -1.1578 -0.0682
   66DOPC  C211 9037   1.534   4.326   4.649  0.7693  0.5304  0.5835
   66DOPC  H11R 9038   1.574   4.382   4.736  2.0036  0.5286  0.0364
   66DOPC  H11S 9039   1.501   4.408   4.581 -0.5512  1.4421  2.2583
   66DOPC  C212 9040   1.655   4.264   4.577  0.1621 -0.8262 -0.2340
   66DOPC  H12R 9041   1.666   4.165   4.626  0.8481 -0.0877  1.1906
   66DOPC  H12S 9042   1.749   4.317   4.605  0.0735 -0.5549 -0.4446
   66DOPC  C213 9043   1.654   4.253   4.421 -0.3884  0.0500  0.5919
   66DOPC  H13R 9044   1.621   4.349   4.375  0.8290  0.9774  1.5929
   66DOPC  H13S 9045   1.568   4.184   4.408 -1.7602  1.7024  0.5083
   66DOPC  C214 9046   1.779   4.190   4.365  0.0404  0.2843 -0.4073
   66DOPC  H14R 9047   1.794   4.085   4.398 -1.0740  0.6080  1.2774
   66DOPC  H14S 9048   1.877   4.235   4.388 -0.2089  0.3526  0.5606
   66DOPC  C215 9049   1.773   4.184   4.209 -0.2990 -0.1850 -0.2109
   66DOPC  H15R 9050   1.797   4.281   4.161  1.1317 -0.5102 -0.1947
   66DOPC  H15S 9051   1.671   4.159   4.173 -0.5267 -2.8718  1.9620
   66DOPC  C216 9052   1.876   4.085   4.148  0.1449  0.3602  0.0193
   66DOPC  H16R 9053   1.829   3.986   4.130  1.7250 -0.1988 -1.2264
   66DOPC  H16S 9054   1.962   4.080   4.218 -0.6940  1.2948  1.1750
   66DOPC  C217 9055   1.924   4.139   4.006  0.3347  0.0253 -0.1466
   66DOPC  H17R 9056   1.972   4.239   4.013  0.6119 -0.1367  0.3717
   66DOPC  H17S 9057   1.840   4.148   3.934 -0.5072  0.3478  0.8427
   66DOPC  C218 9058   2.041   4.055   3.955 -0.1497 -0.2261 -0.2993
   66DOPC  H18R 9059   2.117   4.047   4.036  1.2751  1.8958 -1.3295
   66DOPC  H18S 9060   2.101   4.098   3.872  0.5281 -1.0449 -0.2452
   66DOPC  H18T 9061   2.011   3.954   3.920  0.5978 -0.1522 -1.1896
   66DOPC   C33 9062   1.465   4.770   5.069  0.1761 -0.6336 -0.6174
   66DOPC   H3X 9063   1.377   4.835   5.091  0.0994 -0.7090 -0.7030
   66DOPC   H3Y 9064   1.455   4.690   5.144 -1.8274  0.1569  0.0234
   66DOPC   C34 9065   1.442   4.723   4.925  0.0922  0.3491  0.3243
   66DOPC   H4X 9066   1.514   4.640   4.907  0.9288  1.5053 -2.1132
   66DOPC   H4Y 9067   1.458   4.810   4.858 -1.2779  1.0640  0.8836
   66DOPC   C35 9068   1.302   4.664   4.904  0.7966  0.4170 -0.1244
   66DOPC   H5X 9069   1.217   4.729   4.936 -0.2317 -1.2466  0.6720
   66DOPC   H5Y 9070   1.313   4.578   4.974  3.6771  1.1483  0.4628
   66DOPC   C36 9071   1.288   4.633   4.756  0.2838  0.2677 -0.2206
   66DOPC   H6X 9072   1.302   4.730   4.703  2.3333  0.5407  0.7380
   66DOPC   H6Y 9073   1.371   4.575   4.711 -0.1079 -0.3936 -0.0981
   66DOPC   C37 9074   1.162   4.557   4.722  0.0068 -0.2271  0.0779
   66DOPC   H7X 9075   1.147   4.474   4.794  0.1124 -1.6187 -1.4363
   66DOPC   H7Y 9076   1.075   4.626   4.730  0.8853  0.6609  3.4087
   66DOPC   C38 9077   1.172   4.493   4.586  0.2798  0.7104  0.1124
   66DOPC   H8X 9078   1.081   4.435   4.558 -0.5336  0.7716  2.4535
   66DOPC   H8Y 9079   1.262   4.428   4.580 -0.4409 -0.3066  0.0966
   66DOPC   C39 9080   1.200   4.594   4.480 -0.4592 -0.1977 -0.0287
   66DOPC   H9X 9081   1.303   4.632   4.481 -0.4309 -0.2488 -0.5907
   66DOPC  C310 9082   1.116   4.634   4.383 -0.8321 -0.0295  0.1114
   66DOPC  H10X 9083   1.159   4.713   4.319  0.4726 -0.1337  0.8295
   66DOPC  C311 9084   0.984   4.575   4.347  0.3835 -1.0400 -0.2083
   66DOPC  H11X 9085   0.914   4.640   4.405  1.3269  1.1007 -1.3427
   66DOPC  H11Y 9086   0.983   4.471   4.384  0.9008 -1.0510 -0.2287
   66DOPC  C312 9087   0.946   4.585   4.193 -0.5646 -0.1321 -0.4295
   66DOPC  H12X 9088   1.023   4.527   4.139 -0.6089 -0.2094 -0.4094
   66DOPC  H12Y 9089   0.949   4.691   4.159 -1.0883  0.6202  1.6844
   66DOPC  C313 9090   0.816   4.515   4.164  0.9451  0.5387 -0.1483
   66DOPC  H13X 9091   0.820   4.407   4.190 -2.0337 -0.0719 -1.6687
   66DOPC  H13Y 9092   0.732   4.559   4.222  0.7858 -1.1947  1.0013
   66DOPC  C314 9093   0.761   4.517   4.022 -0.5944  0.5431 -0.2384
   66DOPC  H14X 9094   0.712   4.616   4.007 -2.5515 -0.0683  1.5679
   66DOPC  H14Y 9095   0.840   4.511   3.944 -0.6764 -0.0659 -0.2786
   66DOPC  C315 9096   0.656   4.408   4.008 -0.4259 -0.3840  1.5027
   66DOPC  H15X 9097   0.622   4.414   3.902  1.3119  2.0912  0.9883
   66DOPC  H15Y 9098   0.573   4.436   4.077 -1.1222  1.9010 -0.1259
   66DOPC  C316 9099   0.711   4.272   4.016  0.1554 -0.1302 -0.2227
   66DOPC  H16X 9100   0.806   4.273   3.957  0.6081  0.2270  0.4941
   66DOPC  H16Y 9101   0.737   4.246   4.121  0.1553 -1.5839 -0.5724
   66DOPC  C317 9102   0.619   4.143   3.968 -0.3139 -0.5680  0.0074
   66DOPC  H17X 9103   0.661   4.114   3.870 -0.3073  0.1607 -0.2127
   66DOPC  H17Y 9104   0.635   4.063   4.044  0.4011 -0.9506 -0.5271
   66DOPC  C318 9105   0.471   4.179   3.958  0.3030 -0.0769 -0.2651
   66DOPC  H18X 9106   0.433   4.195   4.061  1.2243 -0.0936  0.0863
   66DOPC  H18Y 9107   0.447   4.266   3.892  0.2352 -0.0791 -0.2438
   66DOPC  H18Z 9108   0.412   4.095   3.916  0.2849 -0.6181  0.8235
   67DOPC     N 9109   1.132   1.864   2.335  0.5011  0.2349 -0.6414
   67DOPC   C12 9110   1.039   1.844   2.460  0.0915 -0.5635  0.6368
   67DOPC  H12A 9111   0.944   1.890   2.435  0.5122  0.0730  0.1708
   67DOPC  H12B 9112   1.088   1.906   2.533  0.4628  0.0614 -0.1346
   67DOPC   C13 9113   1.071   1.811   2.214 -0.6317  0.7768 -0.7154
   67DOPC  H13A 9114   1.128   1.843   2.129 -0.8404  2.2100 -0.3342
   67DOPC  H13B 9115   1.067   1.703   2.224  0.3443  0.9001  1.7274
   67DOPC  H13C 9116   0.969   1.846   2.208 -1.5434 -1.6846 -0.9900
   67DOPC   C14 9117   1.261   1.805   2.367  0.2276  0.5494  0.6487
   67DOPC  H14A 9118   1.256   1.699   2.386 -1.1056  0.5596  0.4621
   67DOPC  H14B 9119   1.327   1.811   2.281  1.1362 -2.3471  1.0514
   67DOPC  H14C 9120   1.315   1.839   2.454  0.2941 -0.8478  1.1654
   67DOPC   C15 9121   1.145   2.011   2.304 -0.0796  0.3448 -0.0935
   67DOPC  H15A 9122   1.195   2.024   2.210 -0.1584  1.3785 -0.0100
   67DOPC  H15B 9123   1.204   2.059   2.381  1.2398  0.3106 -1.0676
   67DOPC  H15C 9124   1.048   2.057   2.287 -0.8314 -0.5177  1.5754
   67DOPC   C11 9125   1.010   1.699   2.505 -0.3425 -0.6277  0.2974
   67DOPC  H11A 9126   0.949   1.698   2.598 -2.9546  1.2907 -1.2688
   67DOPC  H11B 9127   0.947   1.654   2.426  1.2961 -0.1422 -1.3396
   67DOPC     P 9128   1.131   1.481   2.558  1.0430 -0.1160  0.1816
   67DOPC   O13 9129   1.269   1.432   2.543 -0.4500 -0.3352  0.0976
   67DOPC   O14 9130   1.027   1.409   2.478 -0.1103  0.5505 -0.2036
   67DOPC   O12 9131   1.136   1.637   2.526 -0.1063 -0.0938  0.0840
   67DOPC   O11 9132   1.109   1.476   2.714  0.1228 -0.6002 -0.4839
   67DOPC    C1 9133   1.168   1.589   2.788 -0.0035 -0.1893  0.3776
   67DOPC    HA 9134   1.141   1.691   2.754 -1.7763  0.5469  3.5804
   67DOPC    HB 9135   1.278   1.581   2.778  0.0050  0.3405  0.0061
   67DOPC    C2 9136   1.128   1.597   2.935 -0.0008  0.0200 -0.2678
   67DOPC    HS 9137   1.192   1.675   2.983 -0.8819  0.3441  0.4029
   67DOPC   O21 9138   1.118   1.467   3.001 -0.1454  0.3161 -0.0113
   67DOPC   C21 9139   1.236   1.413   3.031  0.8697 -0.5443  0.0194
   67DOPC   O22 9140   1.339   1.479   3.030 -0.3422 -0.2575 -0.0344
   67DOPC   C22 9141   1.238   1.274   3.083  0.6677 -0.3573 -0.0971
   67DOPC   H2R 9142   1.299   1.209   3.017  2.0147  0.6019  0.1636
   67DOPC   H2S 9143   1.140   1.222   3.090  0.6153 -0.1324  1.2026
   67DOPC    C3 9144   0.996   1.671   2.945  0.0826 -0.3864 -0.3196
   67DOPC    HX 9145   0.925   1.609   2.887  1.7617  0.3360 -3.3728
   67DOPC    HY 9146   1.018   1.761   2.883 -1.4053  0.4081  0.2401
   67DOPC   O31 9147   0.962   1.693   3.082  0.2664  0.3043 -0.3983
   67DOPC   C31 9148   0.831   1.718   3.114  0.6281  0.2119 -0.1898
   67DOPC   O32 9149   0.740   1.718   3.032 -0.0375 -0.0670  0.0330
   67DOPC   C32 9150   0.811   1.741   3.268 -0.2009 -0.2399 -0.3971
   67DOPC   H2X 9151   0.814   1.638   3.310  0.2982 -0.2273 -0.3976
   67DOPC   H2Y 9152   0.898   1.789   3.318 -0.7739  0.1734  0.2286
   67DOPC   C23 9153   1.293   1.291   3.226 -0.1395 -0.2636 -0.3384
   67DOPC   H3R 9154   1.395   1.335   3.232  1.6120 -3.9972  0.0740
   67DOPC   H3S 9155   1.313   1.190   3.267  2.7228  0.7130  0.9776
   67DOPC   C24 9156   1.209   1.352   3.340 -0.0023 -0.7757  0.3335
   67DOPC   H4R 9157   1.110   1.302   3.350 -2.3704  2.2505 -4.2100
   67DOPC   H4S 9158   1.194   1.455   3.300  2.0311  0.0279  1.5004
   67DOPC   C25 9159   1.279   1.359   3.476 -0.4559 -0.0834 -0.1710
   67DOPC   H5R 9160   1.386   1.376   3.452 -1.0962  2.2177 -1.7729
   67DOPC   H5S 9161   1.274   1.262   3.529  0.0582 -0.4149 -0.7143
   67DOPC   C26 9162   1.234   1.470   3.577  0.2705 -0.1110  0.0746
   67DOPC   H6R 9163   1.128   1.458   3.607 -0.8615  0.1666 -3.4027
   67DOPC   H6S 9164   1.236   1.556   3.507  0.5342  0.0360  0.2637
   67DOPC   C27 9165   1.334   1.506   3.683 -0.0465 -0.1853  0.2979
   67DOPC   H7R 9166   1.297   1.595   3.739  0.9538  1.5467 -1.6375
   67DOPC   H7S 9167   1.429   1.543   3.638  0.3958 -2.2626 -0.5959
   67DOPC   C28 9168   1.360   1.392   3.776  0.1626 -0.3216  0.2190
   67DOPC   H8R 9169   1.358   1.298   3.718 -4.5739 -1.6509  2.0738
   67DOPC   H8S 9170   1.272   1.383   3.843 -1.8361 -1.6635 -2.3948
   67DOPC   C29 9171   1.478   1.419   3.865  0.2905 -0.1757  0.5438
   67DOPC   H9R 9172   1.482   1.514   3.920 -0.2861  0.1565  0.0252
   67DOPC  C210 9173   1.574   1.325   3.879 -0.4054 -0.6271 -0.0711
   67DOPC  H10R 9174   1.653   1.327   3.956 -1.6432  0.7867  1.2227
   67DOPC  C211 9175   1.594   1.207   3.786 -0.4304 -0.9839  0.3053
   67DOPC  H11R 9176   1.701   1.179   3.772 -0.0859  0.6780 -0.6705
   67DOPC  H11S 9177   1.561   1.228   3.682  1.4776 -1.4278 -0.4484
   67DOPC  C212 9178   1.532   1.072   3.836 -0.8652  0.8183 -0.1154
   67DOPC  H12R 9179   1.523   0.994   3.757  0.1610 -1.8805  2.2583
   67DOPC  H12S 9180   1.426   1.083   3.866 -0.7692 -1.1424  1.1759
   67DOPC  C213 9181   1.607   1.006   3.960  0.0994 -0.0098 -0.7543
   67DOPC  H13R 9182   1.602   1.081   4.042  3.3214 -0.3107 -0.1426
   67DOPC  H13S 9183   1.714   0.987   3.937 -0.3127 -1.9545 -1.2272
   67DOPC  C214 9184   1.540   0.877   4.006  0.5905  0.7754  0.0945
   67DOPC  H14R 9185   1.570   0.797   3.935 -3.9575 -1.1871  0.0519
   67DOPC  H14S 9186   1.431   0.891   3.995  0.7295  2.8418  0.8917
   67DOPC  C215 9187   1.589   0.825   4.143  0.0162 -0.0273 -0.1973
   67DOPC  H15R 9188   1.567   0.912   4.208 -0.2681  1.9179 -2.7180
   67DOPC  H15S 9189   1.699   0.808   4.143  0.1169  0.5760  0.0878
   67DOPC  C216 9190   1.504   0.702   4.187  0.5030 -0.6157  0.7769
   67DOPC  H16R 9191   1.523   0.624   4.110 -1.2879  1.5795 -2.1178
   67DOPC  H16S 9192   1.399   0.737   4.172  0.7737  0.4573  1.2634
   67DOPC  C217 9193   1.533   0.657   4.331 -0.5537  0.1404  0.6385
   67DOPC  H17R 9194   1.510   0.745   4.395  0.9299  1.4820 -0.5888
   67DOPC  H17S 9195   1.638   0.625   4.349  0.1977  0.6739 -2.3064
   67DOPC  C218 9196   1.448   0.537   4.374  0.6106  0.4852  0.1994
   67DOPC  H18R 9197   1.339   0.556   4.382  0.7179  0.5355  2.3039
   67DOPC  H18S 9198   1.473   0.504   4.477  2.5450  2.3209  0.3923
   67DOPC  H18T 9199   1.466   0.460   4.297  0.9076  0.2005  0.5465
   67DOPC   C33 9200   0.684   1.826   3.297 -0.6749  0.0991  0.7264
   67DOPC   H3X 9201   0.598   1.774   3.249 -1.2053  0.9004  0.7922
   67DOPC   H3Y 9202   0.691   1.924   3.246 -0.7228 -0.4550 -0.3898
   67DOPC   C34 9203   0.659   1.835   3.446 -0.3008 -0.2547  0.3274
   67DOPC   H4X 9204   0.746   1.892   3.483  1.2033 -1.3790 -1.2792
   67DOPC   H4Y 9205   0.652   1.735   3.495 -1.8464  0.5296  1.8115
   67DOPC   C35 9206   0.537   1.924   3.486  0.5866  0.0976  0.6186
   67DOPC   H5X 9207   0.457   1.914   3.411  0.5619 -0.5461  0.7309
   67DOPC   H5Y 9208   0.565   2.031   3.468  1.4698 -0.2989 -0.4779
   67DOPC   C36 9209   0.487   1.887   3.627  0.8913  0.0937 -0.7016
   67DOPC   H6X 9210   0.394   1.934   3.666  0.9788 -0.1438 -0.1924
   67DOPC   H6Y 9211   0.468   1.777   3.626  0.3466  0.1845 -0.5074
   67DOPC   C37 9212   0.595   1.917   3.727 -0.2047 -0.2864  0.4337
   67DOPC   H7X 9213   0.684   1.855   3.701  1.0572  0.0981  3.4365
   67DOPC   H7Y 9214   0.623   2.024   3.728 -0.6839 -0.1454  2.1712
   67DOPC   C38 9215   0.565   1.886   3.880  0.4657  0.6714  0.0870
   67DOPC   H8X 9216   0.562   1.777   3.897 -0.9264  0.5977 -0.4553
   67DOPC   H8Y 9217   0.464   1.928   3.901 -0.5099 -1.1128 -0.7649
   67DOPC   C39 9218   0.658   1.947   3.979  0.8133 -0.4414  0.2617
   67DOPC   H9X 9219   0.760   1.927   3.944 -0.1336 -0.9056 -2.4880
   67DOPC  C310 9220   0.629   2.026   4.087  0.3931 -0.5552  0.4549
   67DOPC  H10X 9221   0.716   2.078   4.130 -0.0655 -1.4158  2.4940
   67DOPC  C311 9222   0.493   2.084   4.113 -0.2485  0.2259 -0.0268
   67DOPC  H11X 9223   0.441   2.013   4.182  1.1746 -0.9471 -0.1214
   67DOPC  H11Y 9224   0.442   2.085   4.014  1.2827  2.2190 -0.8761
   67DOPC  C312 9225   0.492   2.232   4.152 -0.0716  0.5883  0.4964
   67DOPC  H12X 9226   0.388   2.269   4.161  0.4793  2.6070 -0.8312
   67DOPC  H12Y 9227   0.533   2.295   4.071  1.1234 -2.0907 -1.1387
   67DOPC  C313 9228   0.545   2.259   4.295  0.1855  0.1033  0.0130
   67DOPC  H13X 9229   0.582   2.163   4.336 -0.2812  0.2198  0.7117
   67DOPC  H13Y 9230   0.621   2.339   4.280  0.0492 -0.0821 -2.0385
   67DOPC  C314 9231   0.421   2.294   4.380 -0.4205 -0.2120  0.2331
   67DOPC  H14X 9232   0.374   2.383   4.333  1.4073  0.4545 -0.4205
   67DOPC  H14Y 9233   0.347   2.212   4.367  1.0049 -1.5133  0.0181
   67DOPC  C315 9234   0.444   2.309   4.530 -0.0911  0.4990 -0.2678
   67DOPC  H15X 9235   0.497   2.405   4.542 -0.3003  0.5652  0.1299
   67DOPC  H15Y 9236   0.503   2.223   4.569 -2.5226 -2.1933 -1.9963
   67DOPC  C316 9237   0.311   2.290   4.597 -0.1686  0.0604 -0.6452
   67DOPC  H16X 9238   0.227   2.348   4.553 -0.4002 -1.4622 -2.3452
   67DOPC  H16Y 9239   0.281   2.183   4.595  0.2353 -0.0686 -0.0606
   67DOPC  C317 9240   0.324   2.338   4.742 -0.1730 -0.0786 -0.3312
   67DOPC  H17X 9241   0.421   2.308   4.788 -2.1216 -1.4897  3.2764
   67DOPC  H17Y 9242   0.318   2.449   4.748  3.0066  0.2139 -1.0766
   67DOPC  C318 9243   0.224   2.271   4.833  0.1396  0.0313  0.0590
   67DOPC  H18X 9244   0.242   2.162   4.817  1.2305  0.4730 -1.9581
   67DOPC  H18Y 9245   0.242   2.299   4.939  1.7747 -2.4266  0.5271
   67DOPC  H18Z 9246   0.121   2.304   4.810  0.0184  1.0859  1.9317
   68DOPC     N 9247   4.263   0.974   2.002 -0.0193 -0.1793 -0.4557
   68DOPC   C12 9248   4.401   0.925   1.983  0.3226  0.2874  0.2135
   68DOPC  H12A 9249   4.408   0.821   2.011 -0.0929 -0.0773 -0.9572
   68DOPC  H12B 9250   4.477   0.973   2.042  2.1784 -2.0869 -0.0667
   68DOPC   C13 9251   4.180   0.900   1.907  0.1815  0.1613  0.5645
   68DOPC  H13A 9252   4.215   0.799   1.890  0.3632  0.2525  0.3949
   68DOPC  H13B 9253   4.074   0.898   1.925 -0.2776  0.0487 -1.7832
   68DOPC  H13C 9254   4.171   0.957   1.815 -2.2653  3.2112  2.4844
   68DOPC   C14 9255   4.257   1.118   1.969  0.6383 -0.1933 -0.1357
   68DOPC  H14A 9256   4.310   1.183   2.037 -0.9869  0.3778  0.6422
   68DOPC  H14B 9257   4.301   1.141   1.873 -2.2467  2.6443 -0.9644
   68DOPC  H14C 9258   4.158   1.161   1.957  0.0918 -1.9696 -3.0095
   68DOPC   C15 9259   4.199   0.951   2.131 -0.5520  0.5172 -1.3641
   68DOPC  H15A 9260   4.266   0.977   2.211 -2.9472  0.9511  0.6017
   68DOPC  H15B 9261   4.172   0.848   2.146 -0.1660  0.2072 -2.6618
   68DOPC  H15C 9262   4.112   1.011   2.152 -1.3804 -1.0901  0.0009
   68DOPC   C11 9263   4.462   0.934   1.840  0.5032 -0.0419 -0.2458
   68DOPC  H11A 9264   4.559   0.880   1.832  1.0083  0.7641  0.1676
   68DOPC  H11B 9265   4.398   0.875   1.772  0.0771 -0.5702  0.5888
   68DOPC     P 9266   4.604   1.141   1.825  0.3641  0.5126  0.0115
   68DOPC   O13 9267   4.581   1.285   1.817 -0.5532 -0.3044 -0.2629
   68DOPC   O14 9268   4.717   1.081   1.740  0.2012  0.0315 -0.7084
   68DOPC   O12 9269   4.471   1.067   1.792 -0.1059 -0.0649 -0.1649
   68DOPC   O11 9270   4.637   1.102   1.975 -0.1833  0.5490 -0.2415
   68DOPC    C1 9271   4.775   1.085   2.021  0.2342  0.2338  0.7812
   68DOPC    HA 9272   4.814   1.172   2.077 -0.0816 -0.4880  2.1772
   68DOPC    HB 9273   4.849   1.055   1.945  0.5503 -0.3716  1.3208
   68DOPC    C2 9274   4.765   0.978   2.132  0.1617 -0.5901  0.1537
   68DOPC    HS 9275   4.867   0.976   2.177  0.9111  0.2444 -1.4216
   68DOPC   O21 9276   4.718   0.851   2.086  0.2239  0.4597  0.4636
   68DOPC   C21 9277   4.805   0.793   2.014  0.3710 -0.0508 -0.2445
   68DOPC   O22 9278   4.920   0.828   1.977  0.2105  0.7432 -0.3418
   68DOPC   C22 9279   4.750   0.653   1.983  0.5765 -0.6614 -0.2564
   68DOPC   H2R 9280   4.841   0.589   1.979  0.4508 -1.0881  2.1690
   68DOPC   H2S 9281   4.700   0.657   1.884  0.6794  1.5263 -0.2678
   68DOPC    C3 9282   4.659   1.031   2.244 -0.0505  0.4180 -0.7777
   68DOPC    HX 9283   4.557   1.012   2.205 -0.6943 -1.9574  1.7353
   68DOPC    HY 9284   4.680   1.139   2.260  1.3826 -0.0751  0.9434
   68DOPC   O31 9285   4.670   0.957   2.367 -0.6214  0.7521  0.3681
   68DOPC   C31 9286   4.556   0.910   2.422 -0.0311 -0.0002 -0.2202
   68DOPC   O32 9287   4.448   0.923   2.372  0.3981 -0.7452 -0.5546
   68DOPC   C32 9288   4.586   0.871   2.568 -0.4149 -0.0092  0.1462
   68DOPC   H2X 9289   4.680   0.812   2.571 -1.3694 -1.5803  0.6247
   68DOPC   H2Y 9290   4.589   0.966   2.625 -0.8804  0.1782 -0.1376
   68DOPC   C23 9291   4.668   0.596   2.103 -0.3836 -0.2462  0.3557
   68DOPC   H3R 9292   4.604   0.511   2.072  0.1477 -0.9655  1.1716
   68DOPC   H3S 9293   4.605   0.673   2.153  2.2451  1.9503  0.5116
   68DOPC   C24 9294   4.760   0.554   2.223 -0.1486 -0.9232 -0.2774
   68DOPC   H4R 9295   4.824   0.633   2.267 -2.1166  0.0953  0.8839
   68DOPC   H4S 9296   4.816   0.468   2.180 -1.9947 -2.1158 -0.3992
   68DOPC   C25 9297   4.675   0.510   2.337  0.1041 -0.0447 -0.0757
   68DOPC   H5R 9298   4.594   0.447   2.295 -2.0730  2.3697  0.2830
   68DOPC   H5S 9299   4.620   0.592   2.387 -1.2257 -0.6321 -0.5424
   68DOPC   C26 9300   4.752   0.415   2.439  0.7799 -0.1923  0.0508
   68DOPC   H6R 9301   4.840   0.469   2.479 -0.0336 -0.4959  2.4271
   68DOPC   H6S 9302   4.793   0.328   2.384 -1.1490 -0.0357 -1.7762
   68DOPC   C27 9303   4.653   0.378   2.553 -0.3215  0.0765  0.0387
   68DOPC   H7R 9304   4.567   0.318   2.517 -0.4416  0.2979 -0.0413
   68DOPC   H7S 9305   4.617   0.475   2.593  3.5332  2.0311 -0.7656
   68DOPC   C28 9306   4.739   0.309   2.668  0.3457 -0.3663 -0.6871
   68DOPC   H8R 9307   4.839   0.351   2.692  0.5780 -2.1852  2.0134
   68DOPC   H8S 9308   4.758   0.203   2.637  0.2672 -0.5309 -0.1822
   68DOPC   C29 9309   4.642   0.297   2.783  0.2022 -0.3484  0.3129
   68DOPC   H9R 9310   4.541   0.293   2.739 -0.5973 -2.1272  2.1792
   68DOPC  C210 9311   4.661   0.283   2.916 -0.3400  0.5165 -0.4768
   68DOPC  H10R 9312   4.579   0.263   2.987  1.5836  0.6950  1.9175
   68DOPC  C211 9313   4.795   0.289   2.981  0.4788  0.2852 -0.1488
   68DOPC  H11R 9314   4.816   0.397   2.996 -1.5396  0.6627  0.1853
   68DOPC  H11S 9315   4.872   0.258   2.907 -1.4387 -1.7600 -1.4278
   68DOPC  C212 9316   4.807   0.212   3.117 -0.2253 -0.1930  0.4631
   68DOPC  H12R 9317   4.915   0.196   3.140 -0.1019 -0.2022 -0.0956
   68DOPC  H12S 9318   4.763   0.110   3.115  0.8111 -0.6714 -1.6006
   68DOPC  C213 9319   4.743   0.286   3.238  0.1333 -0.2532  0.1101
   68DOPC  H13R 9320   4.638   0.317   3.218  0.0581 -0.1131  0.7083
   68DOPC  H13S 9321   4.800   0.381   3.252 -1.9909  0.8182  2.1853
   68DOPC  C214 9322   4.746   0.195   3.362  0.2454 -0.8809  0.0503
   68DOPC  H14R 9323   4.847   0.167   3.398  1.5801 -0.6482 -3.1961
   68DOPC  H14S 9324   4.700   0.102   3.323 -0.3746 -0.4829 -0.1904
   68DOPC  C215 9325   4.649   0.241   3.474 -0.3638  0.2918  0.4008
   68DOPC  H15R 9326   4.608   0.152   3.525  1.6116 -0.3572  0.9393
   68DOPC  H15S 9327   4.565   0.294   3.424 -0.3173  0.4828  0.5201
   68DOPC  C216 9328   4.716   0.336   3.574 -0.3891 -0.4748 -0.0473
   68DOPC  H16R 9329   4.710   0.441   3.539 -1.5319 -0.9449 -1.3255
   68DOPC  H16S 9330   4.823   0.310   3.593  0.4191  3.2113  1.1533
   68DOPC  C217 9331   4.637   0.332   3.710 -0.0852  0.1839  0.4376
   68DOPC  H17R 9332   4.613   0.223   3.719 -0.2149  0.2114  0.4261
   68DOPC  H17S 9333   4.549   0.399   3.708  0.3007  0.6906 -0.6879
   68DOPC  C218 9334   4.725   0.359   3.840 -0.2556 -0.0258  0.3272
   68DOPC  H18R 9335   4.826   0.314   3.830 -0.5496 -0.8054  0.7727
   68DOPC  H18S 9336   4.689   0.325   3.940  2.4443 -1.9855  0.7597
   68DOPC  H18T 9337   4.737   0.469   3.855 -1.7253  0.1576  0.2772
   68DOPC   C33 9338   4.476   0.777   2.635  0.9974 -0.5096  0.2337
   68DOPC   H3X 9339   4.446   0.702   2.558  1.2397 -0.5747  0.2020
   68DOPC   H3Y 9340   4.385   0.837   2.655  1.0233 -0.1524 -0.6814
   68DOPC   C34 9341   4.521   0.693   2.757 -0.2742 -0.0160  0.2811
   68DOPC   H4X 9342   4.616   0.637   2.737  0.9568  1.3898  1.9098
   68DOPC   H4Y 9343   4.448   0.612   2.778 -0.4134 -0.7925 -2.6438
   68DOPC   C35 9344   4.538   0.772   2.890  0.0866  0.1143  0.2640
   68DOPC   H5X 9345   4.445   0.829   2.907 -0.9173 -1.2381 -0.5103
   68DOPC   H5Y 9346   4.629   0.837   2.885  0.6149 -0.6179 -3.8503
   68DOPC   C36 9347   4.563   0.681   3.009  0.5867 -0.1068  0.1432
   68DOPC   H6X 9348   4.464   0.637   3.034  0.4989 -2.2112 -3.2624
   68DOPC   H6Y 9349   4.637   0.603   2.983  0.7345 -0.3894  1.3225
   68DOPC   C37 9350   4.604   0.761   3.129 -0.5671 -0.2154 -0.0178
   68DOPC   H7X 9351   4.684   0.829   3.092 -1.3696 -0.0628 -1.5815
   68DOPC   H7Y 9352   4.524   0.833   3.156  0.7733  1.8599 -1.2523
   68DOPC   C38 9353   4.649   0.688   3.258 -0.7999  0.0225 -0.2282
   68DOPC   H8X 9354   4.709   0.758   3.320 -2.3681 -0.8520  2.4870
   68DOPC   H8Y 9355   4.718   0.611   3.217 -2.3030 -0.9680 -0.9789
   68DOPC   C39 9356   4.543   0.616   3.338 -0.4048  0.3330  0.1399
   68DOPC   H9X 9357   4.475   0.553   3.280  0.8742  0.4871 -1.6236
   68DOPC  C310 9358   4.508   0.640   3.464  0.1701 -0.4543  0.6945
   68DOPC  H10X 9359   4.424   0.583   3.506  1.0247 -3.0024 -0.8394
   68DOPC  C311 9360   4.571   0.749   3.548  0.1350  0.0775 -0.2657
   68DOPC  H11X 9361   4.672   0.773   3.507  0.2937  0.9358  0.6019
   68DOPC  H11Y 9362   4.597   0.702   3.645 -0.9142 -0.0943 -0.0572
   68DOPC  C312 9363   4.491   0.881   3.570 -0.3208 -0.8412  0.6422
   68DOPC  H12X 9364   4.456   0.883   3.675  0.6108 -1.0844  0.9607
   68DOPC  H12Y 9365   4.409   0.891   3.496  0.6785  0.1881 -0.3576
   68DOPC  C313 9366   4.573   1.007   3.566  0.1358 -0.3324  0.9296
   68DOPC  H13X 9367   4.510   1.099   3.572  1.2921  0.4101  2.0438
   68DOPC  H13Y 9368   4.634   1.016   3.658 -0.8345 -0.5818  1.6134
   68DOPC  C314 9369   4.649   1.016   3.432 -0.1099 -0.1115  0.4437
   68DOPC  H14X 9370   4.721   0.931   3.428 -0.6120 -0.6419  1.9594
   68DOPC  H14Y 9371   4.585   0.992   3.344 -0.1543  1.6145 -0.0330
   68DOPC  C315 9372   4.725   1.149   3.409 -0.1082  0.4783  0.6998
   68DOPC  H15X 9373   4.807   1.150   3.484 -0.8015  0.4407  1.4670
   68DOPC  H15Y 9374   4.657   1.234   3.429 -1.1650 -0.7100  2.3920
   68DOPC  C316 9375   4.779   1.161   3.266  0.3393  0.1686 -0.3545
   68DOPC  H16X 9376   4.866   1.230   3.262  1.1393 -0.9030 -2.8988
   68DOPC  H16Y 9377   4.823   1.065   3.233 -0.0570 -1.0533  2.3452
   68DOPC  C317 9378   4.675   1.212   3.170 -0.4517  0.3676  0.2824
   68DOPC  H17X 9379   4.713   1.194   3.067 -2.2058 -2.4321  0.0111
   68DOPC  H17Y 9380   4.587   1.147   3.190  0.7673 -1.5154 -0.1930
   68DOPC  C318 9381   4.637   1.360   3.171 -0.3365  0.5275  0.0444
   68DOPC  H18X 9382   4.595   1.383   3.271  0.9480  0.0917  0.7053
   68DOPC  H18Y 9383   4.723   1.428   3.158 -1.2175  1.9119  1.1636
   68DOPC  H18Z 9384   4.566   1.383   3.089 -1.0365  1.6771  0.9474
   69DOPC     N 9385   0.470   2.330   2.070 -0.6447 -0.3159  0.3940
   69DOPC   C12 9386   0.508   2.270   2.205  0.2334 -0.0939 -0.3032
   69DOPC  H12A 9387   0.557   2.174   2.196  0.5144 -0.2071  1.9906
   69DOPC  H12B 9388   0.415   2.259   2.258 -1.0330  2.0616 -1.8953
   69DOPC   C13 9389   0.580   2.318   1.962  0.1167  0.4091  0.0488
   69DOPC  H13A 9390   0.604   2.218   1.927 -0.1895  0.2820  0.2010
   69DOPC  H13B 9391   0.550   2.364   1.869  0.7041  0.2347 -0.2357
   69DOPC  H13C 9392   0.664   2.375   1.997 -0.7675  2.3955 -0.9047
   69DOPC   C14 9393   0.429   2.468   2.073  0.0102 -0.0442  0.1546
   69DOPC  H14A 9394   0.392   2.500   1.977 -0.8214 -1.8621 -0.1728
   69DOPC  H14B 9395   0.369   2.501   2.156  2.9148  0.6103  2.1885
   69DOPC  H14C 9396   0.513   2.535   2.083 -1.1367  1.2847  1.3406
   69DOPC   C15 9397   0.360   2.241   2.021  0.2533  0.3999 -0.1959
   69DOPC  H15A 9398   0.398   2.140   2.013  0.7009  0.4872  0.7262
   69DOPC  H15B 9399   0.325   2.278   1.925  0.8021 -1.4520 -1.1617
   69DOPC  H15C 9400   0.270   2.243   2.080  0.9513 -0.3890  0.9188
   69DOPC   C11 9401   0.603   2.362   2.293 -0.2550  0.0312  0.5571
   69DOPC  H11A 9402   0.554   2.461   2.310  2.0651  0.7372  4.3263
   69DOPC  H11B 9403   0.602   2.313   2.393 -1.7783 -0.9102  0.1152
   69DOPC     P 9404   0.842   2.289   2.243  0.0194 -0.1715 -0.0011
   69DOPC   O13 9405   0.971   2.351   2.211 -0.4824  0.4774  0.5720
   69DOPC   O14 9406   0.798   2.165   2.174  0.1659  0.4523  0.0011
   69DOPC   O12 9407   0.722   2.398   2.231  0.4916  0.0545 -0.0249
   69DOPC   O11 9408   0.839   2.260   2.402 -0.1148 -0.6117 -0.1286
   69DOPC    C1 9409   0.933   2.315   2.496  0.1692 -0.3451  0.9225
   69DOPC    HA 9410   1.002   2.388   2.449  0.0448 -1.6220 -1.4012
   69DOPC    HB 9411   0.996   2.228   2.526  0.3644  0.0004  1.5301
   69DOPC    C2 9412   0.865   2.374   2.623 -0.2714  0.0534  0.3410
   69DOPC    HS 9413   0.952   2.419   2.676  1.2165 -0.2821 -1.6740
   69DOPC   O21 9414   0.797   2.269   2.697  0.1969  0.6687  0.0824
   69DOPC   C21 9415   0.811   2.282   2.829  0.3815  0.4592  0.1202
   69DOPC   O22 9416   0.876   2.367   2.885  0.3914  0.3309  0.4656
   69DOPC   C22 9417   0.740   2.162   2.899  0.4862  0.0779  0.4087
   69DOPC   H2R 9418   0.787   2.064   2.875 -0.3142  0.0724 -1.3076
   69DOPC   H2S 9419   0.635   2.167   2.863  0.7650  1.9404 -0.2870
   69DOPC    C3 9420   0.770   2.496   2.593  0.0496  0.3622  0.5865
   69DOPC    HX 9421   0.691   2.465   2.521  1.7837 -3.1951 -0.0245
   69DOPC    HY 9422   0.842   2.560   2.538  1.7768 -0.3742  1.8716
   69DOPC   O31 9423   0.726   2.575   2.707 -0.0827  0.4589 -0.2310
   69DOPC   C31 9424   0.608   2.534   2.748 -0.8526 -0.6970 -0.5987
   69DOPC   O32 9425   0.547   2.437   2.712 -0.4054  0.4194 -0.0984
   69DOPC   C32 9426   0.561   2.637   2.864  0.7100  0.7280  0.3615
   69DOPC   H2X 9427   0.638   2.717   2.873  1.5550  0.0455 -0.6571
   69DOPC   H2Y 9428   0.477   2.682   2.807  1.0553 -1.4527 -2.0481
   69DOPC   C23 9429   0.747   2.176   3.053 -0.1313  0.0119  0.4055
   69DOPC   H3R 9430   0.667   2.121   3.108  0.3902 -0.8460  0.3132
   69DOPC   H3S 9431   0.736   2.285   3.071  1.1562  0.0620  0.9703
   69DOPC   C24 9432   0.880   2.141   3.135  0.2482  0.4151  0.3068
   69DOPC   H4R 9433   0.964   2.197   3.090 -0.7690  0.8017 -1.1862
   69DOPC   H4S 9434   0.888   2.030   3.128 -0.9124  0.2090  1.7821
   69DOPC   C25 9435   0.867   2.179   3.280 -0.2452  0.3827 -0.3561
   69DOPC   H5R 9436   0.776   2.128   3.318 -0.9835 -0.0793 -2.5940
   69DOPC   H5S 9437   0.845   2.288   3.283  1.0409  0.6523 -0.3802
   69DOPC   C26 9438   0.986   2.154   3.374  0.7438 -0.4937  0.1799
   69DOPC   H6R 9439   1.070   2.176   3.305 -1.0708 -0.8158 -2.2267
   69DOPC   H6S 9440   0.994   2.047   3.405 -0.5986 -0.4343  0.7796
   69DOPC   C27 9441   0.997   2.256   3.492  0.7485  0.2892  0.1151
   69DOPC   H7R 9442   0.999   2.357   3.446 -2.0401  1.2642  1.8852
   69DOPC   H7S 9443   1.092   2.251   3.549 -0.6216  0.9661  2.6318
   69DOPC   C28 9444   0.880   2.268   3.595 -0.1162  0.2215  0.0896
   69DOPC   H8R 9445   0.783   2.281   3.544 -0.4928  2.7309  1.2993
   69DOPC   H8S 9446   0.887   2.364   3.649  0.3033  1.8633 -2.6719
   69DOPC   C29 9447   0.866   2.156   3.692 -0.4755 -0.3489 -0.5978
   69DOPC   H9R 9448   0.833   2.059   3.652 -0.9963  0.1361 -1.3723
   69DOPC  C210 9449   0.910   2.157   3.826 -0.4780 -0.0111  0.7377
   69DOPC  H10R 9450   0.890   2.069   3.889 -1.0712 -1.4665 -1.3740
   69DOPC  C211 9451   0.971   2.280   3.894 -0.3648  0.0936 -0.2040
   69DOPC  H11R 9452   0.981   2.368   3.827  0.2473 -0.6404 -1.0996
   69DOPC  H11S 9453   1.078   2.258   3.916 -0.5904  0.3478  1.2441
   69DOPC  C212 9454   0.892   2.321   4.016  0.7166 -0.0434  0.5238
   69DOPC  H12R 9455   0.797   2.372   3.990  0.0577 -1.3606  0.2717
   69DOPC  H12S 9456   0.869   2.227   4.071  0.9826 -2.0011 -2.4761
   69DOPC  C213 9457   0.982   2.418   4.098 -0.0236  0.6208  0.4410
   69DOPC  H13R 9458   1.010   2.509   4.041  0.6696 -1.2863 -2.5084
   69DOPC  H13S 9459   1.078   2.369   4.124 -0.4916  0.6580  2.4612
   69DOPC  C214 9460   0.914   2.451   4.239 -0.1794  0.0763 -0.7620
   69DOPC  H14R 9461   0.853   2.361   4.261 -1.4557  0.6779 -1.7077
   69DOPC  H14S 9462   0.840   2.527   4.206 -1.3490 -1.0098 -0.7000
   69DOPC  C215 9463   1.024   2.470   4.343  0.0855 -0.6436  0.4205
   69DOPC  H15R 9464   1.081   2.375   4.352  0.6601 -0.8427 -3.7614
   69DOPC  H15S 9465   0.983   2.482   4.446  1.8908  0.4923  1.0595
   69DOPC  C216 9466   1.132   2.582   4.313 -0.4919  0.7157  0.0682
   69DOPC  H16R 9467   1.197   2.542   4.231 -1.8775 -1.1754 -0.1721
   69DOPC  H16S 9468   1.188   2.608   4.405  0.2955  1.4477 -0.5948
   69DOPC  C217 9469   1.077   2.712   4.262 -0.0483 -0.6067 -0.6001
   69DOPC  H17R 9470   1.013   2.699   4.172  0.5787  0.4775 -1.2216
   69DOPC  H17S 9471   1.160   2.782   4.238  0.6112 -0.6708  1.3319
   69DOPC  C218 9472   0.998   2.783   4.374 -1.0754  0.4506 -0.3431
   69DOPC  H18R 9473   0.952   2.710   4.444 -0.6177 -0.1253 -0.6319
   69DOPC  H18S 9474   0.911   2.833   4.327 -2.2594 -0.1995  1.1084
   69DOPC  H18T 9475   1.064   2.849   4.435 -0.5643  0.4958 -0.9298
   69DOPC   C33 9476   0.517   2.560   2.991 -0.4023 -0.4126  0.3339
   69DOPC   H3X 9477   0.596   2.489   3.024 -2.5454 -2.3188  1.6648
   69DOPC   H3Y 9478   0.423   2.504   2.970 -0.3389 -0.7116  0.8305
   69DOPC   C34 9479   0.482   2.668   3.095 -0.0827 -0.2331 -0.5936
   69DOPC   H4X 9480   0.393   2.729   3.068 -0.9184 -0.7363  0.8792
   69DOPC   H4Y 9481   0.569   2.734   3.112 -0.2174 -0.1724 -0.1118
   69DOPC   C35 9482   0.461   2.618   3.240  0.1181  0.2137  0.1033
   69DOPC   H5X 9483   0.550   2.569   3.285  0.7396  0.0318 -1.2884
   69DOPC   H5Y 9484   0.389   2.535   3.224 -0.9914  1.7383 -3.9469
   69DOPC   C36 9485   0.396   2.726   3.332 -0.8789  0.2209  0.2322
   69DOPC   H6X 9486   0.309   2.772   3.280 -0.5708 -0.4208 -0.8825
   69DOPC   H6Y 9487   0.359   2.667   3.419  2.1989 -0.7778  0.9702
   69DOPC   C37 9488   0.491   2.835   3.387 -0.8466 -0.1916  0.1937
   69DOPC   H7X 9489   0.576   2.793   3.444 -1.0994 -0.8263  0.1107
   69DOPC   H7Y 9490   0.543   2.886   3.303  2.9082  2.8468  3.9609
   69DOPC   C38 9491   0.412   2.939   3.466 -0.9481 -0.1440  0.3109
   69DOPC   H8X 9492   0.366   2.891   3.555 -0.6268  2.3016  1.8842
   69DOPC   H8Y 9493   0.322   2.959   3.403 -1.7633  0.4196  1.6109
   69DOPC   C39 9494   0.494   3.061   3.509 -0.0707  0.8011 -1.0567
   69DOPC   H9X 9495   0.580   3.046   3.576 -2.5482  2.3534  2.8302
   69DOPC  C310 9496   0.476   3.179   3.453 -0.4065  0.4148 -0.9238
   69DOPC  H10X 9497   0.538   3.263   3.487  0.0852 -1.2915  2.9745
   69DOPC  C311 9498   0.382   3.221   3.350 -1.2296 -0.4088 -0.4887
   69DOPC  H11X 9499   0.305   3.144   3.330 -1.9589 -0.4202  2.0379
   69DOPC  H11Y 9500   0.432   3.232   3.251 -0.1828 -0.1135  0.0507
   69DOPC  C312 9501   0.316   3.352   3.407 -0.7080 -0.1453 -0.3823
   69DOPC  H12X 9502   0.262   3.402   3.324  1.6332  0.8890 -1.3860
   69DOPC  H12Y 9503   0.394   3.423   3.444 -2.2424  1.4895 -0.1472
   69DOPC  C313 9504   0.222   3.317   3.528 -0.1400 -0.3542 -0.2476
   69DOPC  H13X 9505   0.168   3.227   3.490  0.8324 -1.1011  0.0902
   69DOPC  H13Y 9506   0.280   3.290   3.619 -0.0073 -0.7039 -0.4362
   69DOPC  C314 9507   0.125   3.434   3.556  0.0015 -0.0574 -0.1883
   69DOPC  H14X 9508   0.187   3.511   3.606  0.3310  0.3569 -1.2065
   69DOPC  H14Y 9509   0.084   3.491   3.469 -1.9001 -0.1014  0.6367
   69DOPC  C315 9510   0.011   3.390   3.647  0.0718  0.0915 -0.5573
   69DOPC  H15X 9511   0.038   3.312   3.721  1.5334 -0.7446 -1.9147
   69DOPC  H15Y 9512  -0.070   3.356   3.579 -2.3116  1.6154  1.3194
   69DOPC  C316 9513  -0.048   3.504   3.733 -0.5662  0.0579 -0.3012
   69DOPC  H16X 9514   0.031   3.541   3.802 -0.5243  2.1025 -1.3725
   69DOPC  H16Y 9515  -0.077   3.589   3.667 -1.0764  0.7433  0.7969
   69DOPC  C317 9516  -0.180   3.466   3.810 -0.3864 -0.9225 -0.0017
   69DOPC  H17X 9517  -0.194   3.551   3.880  0.7899 -3.0140  2.9753
   69DOPC  H17Y 9518  -0.259   3.461   3.731  1.0004 -0.6447 -1.4578
   69DOPC  C318 9519  -0.181   3.344   3.901  0.3360  0.2171 -0.0184
   69DOPC  H18X 9520  -0.198   3.256   3.836 -0.5594  1.3157 -1.3348
   69DOPC  H18Y 9521  -0.084   3.329   3.954  0.3034  1.3586  0.3841
   69DOPC  H18Z 9522  -0.262   3.341   3.976 -0.9443  0.3104 -1.3680
   70DOPC     N 9523   2.717   4.515   1.735 -0.4582  0.6050 -0.1363
   70DOPC   C12 9524   2.827   4.587   1.805  0.2411  0.1878  0.0097
   70DOPC  H12A 9525   2.884   4.647   1.737 -0.5930 -0.0468 -0.9134
   70DOPC  H12B 9526   2.901   4.519   1.846  0.3070  0.4332  0.3027
   70DOPC   C13 9527   2.608   4.610   1.687 -0.8266 -0.2074  0.0201
   70DOPC  H13A 9528   2.558   4.648   1.775  0.7444  3.0188 -0.3207
   70DOPC  H13B 9529   2.648   4.703   1.649 -0.8817  1.1968  3.0651
   70DOPC  H13C 9530   2.537   4.565   1.620 -1.5008  0.5609  0.1952
   70DOPC   C14 9531   2.651   4.418   1.832 -0.0759 -0.1969 -0.7081
   70DOPC  H14A 9532   2.605   4.471   1.914  0.5207 -1.1709  0.2791
   70DOPC  H14B 9533   2.575   4.357   1.786  0.6238 -2.1446  0.5940
   70DOPC  H14C 9534   2.727   4.352   1.871 -1.4455 -2.6997 -2.0623
   70DOPC   C15 9535   2.771   4.442   1.616 -0.1379 -0.1739  0.1674
   70DOPC  H15A 9536   2.844   4.503   1.566 -0.3279 -1.5828 -1.9315
   70DOPC  H15B 9537   2.702   4.408   1.540 -0.3440  1.1067 -0.2336
   70DOPC  H15C 9538   2.821   4.353   1.652 -0.1166  0.1253  0.9025
   70DOPC   C11 9539   2.792   4.687   1.924  0.1948  0.1958  0.2176
   70DOPC  H11A 9540   2.769   4.625   2.013 -0.2483  0.3763  0.2344
   70DOPC  H11B 9541   2.888   4.741   1.938  1.5285 -1.5529 -1.6279
   70DOPC     P 9542   2.637   4.864   2.019 -0.0249  0.0479  0.0030
   70DOPC   O13 9543   2.596   4.996   1.969 -0.4462 -0.3849 -0.3261
   70DOPC   O14 9544   2.744   4.852   2.119 -0.3046 -0.2455 -0.1782
   70DOPC   O12 9545   2.679   4.773   1.894 -0.5037  0.4677  0.4883
   70DOPC   O11 9546   2.508   4.787   2.070 -0.4497 -0.1602 -0.3942
   70DOPC    C1 9547   2.519   4.686   2.170 -0.1622  0.2299  0.8379
   70DOPC    HA 9548   2.622   4.675   2.213  0.3891  0.2417 -0.4486
   70DOPC    HB 9549   2.485   4.588   2.131  0.8190 -0.3354  1.3467
   70DOPC    C2 9550   2.423   4.710   2.296 -0.4352  0.1799  0.0635
   70DOPC    HS 9551   2.334   4.766   2.262  0.2911  1.7755  0.6958
   70DOPC   O21 9552   2.489   4.787   2.396 -0.1351  0.0851 -0.7866
   70DOPC   C21 9553   2.420   4.881   2.454 -0.2941 -0.1102 -0.4989
   70DOPC   O22 9554   2.310   4.916   2.415 -0.2463  0.1119  0.1205
   70DOPC   C22 9555   2.506   4.934   2.575  0.1134  0.4439 -1.1055
   70DOPC   H2R 9556   2.558   4.845   2.617 -1.6956  0.2283  0.8576
   70DOPC   H2S 9557   2.435   4.960   2.657 -1.7166 -0.8617 -2.1827
   70DOPC    C3 9558   2.359   4.580   2.357  0.3176  0.3142  0.1318
   70DOPC    HX 9559   2.441   4.521   2.403 -0.1805 -0.4150  0.0898
   70DOPC    HY 9560   2.314   4.520   2.275  0.1538  1.6398 -0.7829
   70DOPC   O31 9561   2.270   4.625   2.457  0.2312 -0.6837  0.7066
   70DOPC   C31 9562   2.147   4.575   2.459 -0.8706 -0.7861 -0.3645
   70DOPC   O32 9563   2.107   4.481   2.400 -0.4282  0.3083  0.1825
   70DOPC   C32 9564   2.073   4.667   2.555 -0.1840 -0.0070  0.8079
   70DOPC   H2X 9565   2.051   4.755   2.492  0.1519  0.0858  0.8217
   70DOPC   H2Y 9566   1.977   4.614   2.575  1.3249 -2.8924  0.9492
   70DOPC   C23 9567   2.594   5.047   2.539 -0.5583 -0.4346 -0.2960
   70DOPC   H3R 9568   2.540   5.138   2.507  0.7939  0.6204  0.3489
   70DOPC   H3S 9569   2.653   5.020   2.449 -0.7928  0.8656 -0.8578
   70DOPC   C24 9570   2.696   5.079   2.652 -0.1376  0.7229  0.3627
   70DOPC   H4R 9571   2.769   5.158   2.625 -0.0050 -0.1274 -2.0461
   70DOPC   H4S 9572   2.752   4.987   2.680 -0.7786  1.2505  3.7671
   70DOPC   C25 9573   2.624   5.134   2.780 -0.1642  0.0488 -0.5328
   70DOPC   H5R 9574   2.542   5.069   2.818 -2.6323  3.3502  0.2473
   70DOPC   H5S 9575   2.569   5.228   2.759 -0.3812  0.0002 -0.1865
   70DOPC   C26 9576   2.722   5.158   2.893  0.4525 -0.2527  0.5656
   70DOPC   H6R 9577   2.705   5.250   2.953  1.8237 -0.1241  0.7856
   70DOPC   H6S 9578   2.819   5.174   2.842 -0.0797  0.9370 -0.1133
   70DOPC   C27 9579   2.737   5.033   2.986  0.2836  0.5814 -0.4317
   70DOPC   H7R 9580   2.741   4.939   2.926  1.1692  0.0947  0.3481
   70DOPC   H7S 9581   2.643   5.023   3.045  0.5331  3.1237  0.4873
   70DOPC   C28 9582   2.865   5.035   3.060  1.0925 -0.0037  0.1904
   70DOPC   H8R 9583   2.872   5.133   3.111  4.2815  0.4772 -0.9062
   70DOPC   H8S 9584   2.951   5.027   2.990  0.5589 -1.6991 -0.3099
   70DOPC   C29 9585   2.867   4.923   3.158 -0.2675  0.1226 -0.0869
   70DOPC   H9R 9586   2.878   4.821   3.118  1.6174  0.1144  0.3635
   70DOPC  C210 9587   2.845   4.922   3.290 -0.4290  0.2348 -0.1269
   70DOPC  H10R 9588   2.826   4.821   3.330  0.6787 -0.4201 -1.1681
   70DOPC  C211 9589   2.811   5.038   3.379  0.1010 -0.1989  0.0344
   70DOPC  H11R 9590   2.714   5.013   3.427 -0.2530 -1.9912 -1.4516
   70DOPC  H11S 9591   2.800   5.132   3.320  1.4188 -0.0811 -0.0473
   70DOPC  C212 9592   2.919   5.047   3.483 -0.2865 -0.2542  0.0441
   70DOPC  H12R 9593   2.920   4.953   3.542  0.5826 -2.1517 -2.8064
   70DOPC  H12S 9594   2.899   5.128   3.556  2.7420 -0.6240  1.4291
   70DOPC  C213 9595   3.065   5.067   3.441  0.4381  0.5385 -0.3208
   70DOPC  H13R 9596   3.062   5.168   3.394  0.1640  0.6247 -0.1203
   70DOPC  H13S 9597   3.095   4.997   3.360  0.8557  1.9619 -1.4279
   70DOPC  C214 9598   3.165   5.052   3.559 -0.1308  0.2356 -0.5328
   70DOPC  H14R 9599   3.134   4.972   3.630 -0.0984  0.0952 -0.6748
   70DOPC  H14S 9600   3.162   5.139   3.628 -0.1110 -1.5256  1.8136
   70DOPC  C215 9601   3.314   5.022   3.524  0.5865 -0.0558 -0.5341
   70DOPC  H15R 9602   3.351   5.061   3.427  0.5932 -1.5700 -1.1703
   70DOPC  H15S 9603   3.325   4.912   3.516  2.1297  0.1204 -1.0468
   70DOPC  C216 9604   3.399   5.078   3.638 -0.1152  0.0708  0.6905
   70DOPC  H16R 9605   3.391   5.034   3.740  0.5027 -0.6806  0.4300
   70DOPC  H16S 9606   3.377   5.186   3.647 -1.4268 -0.2012  0.9819
   70DOPC  C217 9607   3.541   5.077   3.586  0.2285  0.8092 -0.0345
   70DOPC  H17R 9608   3.618   5.112   3.657  0.7192 -2.3560  1.1372
   70DOPC  H17S 9609   3.540   5.160   3.512 -0.1605  1.8235  1.0722
   70DOPC  C218 9610   3.592   4.940   3.526 -0.3346  0.2649 -0.1463
   70DOPC  H18R 9611   3.577   4.856   3.597  0.8905  0.2700  0.1444
   70DOPC  H18S 9612   3.694   4.955   3.484 -0.2188 -0.3258 -0.0807
   70DOPC  H18T 9613   3.534   4.927   3.432  0.6137  0.3388 -0.7551
   70DOPC   C33 9614   2.147   4.696   2.688  0.1390  0.1047 -0.0992
   70DOPC   H3X 9615   2.253   4.664   2.678 -0.8209 -3.8819  0.8623
   70DOPC   H3Y 9616   2.106   4.639   2.773  1.1848 -1.4686 -0.6043
   70DOPC   C34 9617   2.147   4.851   2.726  0.0407 -0.1695  0.2507
   70DOPC   H4X 9618   2.044   4.887   2.749  0.2181  1.8275 -1.6870
   70DOPC   H4Y 9619   2.182   4.921   2.647  1.5564 -0.5729  0.5452
   70DOPC   C35 9620   2.228   4.866   2.857  0.4870  0.1810  0.2452
   70DOPC   H5X 9621   2.324   4.815   2.836  0.0895  0.3457 -2.3100
   70DOPC   H5Y 9622   2.173   4.816   2.939  0.1503  1.8700  1.0854
   70DOPC   C36 9623   2.238   5.011   2.902 -0.0064 -0.4865  1.1121
   70DOPC   H6X 9624   2.298   5.070   2.829 -0.2886 -2.2196 -0.5847
   70DOPC   H6Y 9625   2.132   5.042   2.909  0.4175  0.9415  1.7893
   70DOPC   C37 9626   2.297   5.028   3.038  0.6494  0.0492 -0.4442
   70DOPC   H7X 9627   2.243   4.963   3.110 -0.2195  1.8471  0.6016
   70DOPC   H7Y 9628   2.403   4.996   3.043  1.1562  1.7591  0.4508
   70DOPC   C38 9629   2.298   5.173   3.087  0.0477  0.6206 -0.4388
   70DOPC   H8X 9630   2.194   5.211   3.084 -0.4148 -0.2261  2.2316
   70DOPC   H8Y 9631   2.357   5.225   3.008  1.0129 -0.8415 -0.7252
   70DOPC   C39 9632   2.370   5.194   3.221  0.2717 -0.3399  0.1358
   70DOPC   H9X 9633   2.468   5.146   3.217  0.2513 -0.3560 -0.2147
   70DOPC  C310 9634   2.331   5.259   3.333 -0.1566  0.0107  0.0395
   70DOPC  H10X 9635   2.406   5.268   3.412 -0.0205  0.8189 -0.1636
   70DOPC  C311 9636   2.197   5.321   3.357 -0.0115  0.6874 -0.4074
   70DOPC  H11X 9637   2.142   5.313   3.261  2.1621 -1.8631 -1.5554
   70DOPC  H11Y 9638   2.207   5.424   3.398 -1.2861  0.2116  1.1866
   70DOPC  C312 9639   2.121   5.243   3.469 -0.3246  0.0090 -0.0159
   70DOPC  H12X 9640   2.164   5.242   3.571 -0.1313 -1.5656 -0.0823
   70DOPC  H12Y 9641   2.116   5.138   3.434 -1.6060  0.4533 -1.2811
   70DOPC  C313 9642   1.975   5.295   3.472 -0.9828  0.4577 -0.0321
   70DOPC  H13X 9643   1.980   5.404   3.496 -1.7355  0.6660 -0.7303
   70DOPC  H13Y 9644   1.945   5.276   3.366  2.7418  0.4296 -1.2096
   70DOPC  C314 9645   1.877   5.230   3.567 -0.1397 -0.1274  0.2184
   70DOPC  H14X 9646   1.912   5.227   3.672  2.0650 -3.0081 -0.4874
   70DOPC  H14Y 9647   1.774   5.273   3.561  0.3668  1.0137 -0.6968
   70DOPC  C315 9648   1.851   5.082   3.534  0.4359  0.6615  0.0600
   70DOPC  H15X 9649   1.942   5.018   3.541 -0.0427 -0.1917 -1.1144
   70DOPC  H15Y 9650   1.818   5.075   3.428  0.3470 -1.8289  0.2019
   70DOPC  C316 9651   1.742   5.017   3.621  0.9576  0.9734  0.1544
   70DOPC  H16X 9652   1.773   5.034   3.727 -0.2516 -0.6632  0.8179
   70DOPC  H16Y 9653   1.646   5.073   3.621  0.0329 -0.4222  2.8176
   70DOPC  C317 9654   1.718   4.867   3.605  0.7034 -0.3462 -0.4940
   70DOPC  H17X 9655   1.677   4.841   3.505 -0.4514  0.0291 -0.1425
   70DOPC  H17Y 9656   1.810   4.807   3.621 -0.6623 -3.3232 -2.7411
   70DOPC  C318 9657   1.611   4.827   3.711 -0.0606  0.7770 -0.6457
   70DOPC  H18X 9658   1.655   4.851   3.810  1.6123 -1.2235 -0.8335
   70DOPC  H18Y 9659   1.510   4.871   3.695 -0.9046 -0.7244  0.1973
   70DOPC  H18Z 9660   1.586   4.718   3.708  1.4759  0.2027  2.6095
   71DOPC     N 9661   4.202   2.681   1.964 -0.1292 -0.7393 -0.3864
   71DOPC   C12 9662   4.096   2.736   2.057 -1.1052  0.6312 -0.4415
   71DOPC  H12A 9663   4.132   2.833   2.089 -2.1247  1.0832 -0.6242
   71DOPC  H12B 9664   4.100   2.676   2.146 -3.4236  3.3472  1.7349
   71DOPC   C13 9665   4.209   2.756   1.840  0.0090  0.2190 -0.1496
   71DOPC  H13A 9666   4.254   2.852   1.859  0.8775  0.0744 -1.3126
   71DOPC  H13B 9667   4.269   2.712   1.761 -0.9018  0.0241 -0.7552
   71DOPC  H13C 9668   4.110   2.775   1.802 -0.2152  0.5592  0.6053
   71DOPC   C14 9669   4.145   2.548   1.935  0.7979  0.8014  0.9255
   71DOPC  H14A 9670   4.202   2.489   1.865 -1.0193  0.8733 -0.7002
   71DOPC  H14B 9671   4.148   2.487   2.023 -2.9962 -0.7253  0.1744
   71DOPC  H14C 9672   4.042   2.549   1.901  0.6725  0.4910  1.2955
   71DOPC   C15 9673   4.331   2.679   2.036 -0.0640 -0.3499  0.0930
   71DOPC  H15A 9674   4.328   2.618   2.125  0.9186  0.2760  0.5745
   71DOPC  H15B 9675   4.365   2.779   2.056 -1.7887  0.3222 -0.1411
   71DOPC  H15C 9676   4.407   2.627   1.979  0.3910 -0.6856  0.9934
   71DOPC   C11 9677   3.946   2.751   2.012  0.1567 -0.7853 -0.6226
   71DOPC  H11A 9678   3.910   2.649   1.988 -0.3045 -0.5488 -0.9412
   71DOPC  H11B 9679   3.886   2.796   2.094  0.4115 -0.3659 -0.6601
   71DOPC     P 9680   3.934   2.986   1.916 -0.2530 -0.1896  0.0004
   71DOPC   O13 9681   3.798   3.031   1.951  0.6654  0.4225 -0.1587
   71DOPC   O14 9682   4.003   3.033   1.791 -0.1759  0.3091  0.4061
   71DOPC   O12 9683   3.934   2.836   1.896 -0.3918  0.2558 -0.5466
   71DOPC   O11 9684   4.026   3.020   2.033 -0.2653 -0.2324 -0.1047
   71DOPC    C1 9685   4.109   3.136   2.046  0.1555  0.0816 -0.2501
   71DOPC    HA 9686   4.058   3.231   2.017  2.4124  1.3549 -0.3179
   71DOPC    HB 9687   4.194   3.128   1.974  1.3643  1.0947  1.0198
   71DOPC    C2 9688   4.173   3.141   2.192  0.3845 -0.3639 -0.0097
   71DOPC    HS 9689   4.244   3.057   2.196  2.4300  1.0159 -3.2975
   71DOPC   O21 9690   4.071   3.141   2.295  0.5661 -0.3665 -0.2444
   71DOPC   C21 9691   4.029   3.024   2.348  0.5535 -0.0515  0.3646
   71DOPC   O22 9692   4.078   2.915   2.318  0.1426 -0.0509 -0.2127
   71DOPC   C22 9693   3.930   3.047   2.461  0.6528 -0.6214  0.1105
   71DOPC   H2R 9694   3.864   2.958   2.467 -1.8143  1.1613  0.9938
   71DOPC   H2S 9695   3.874   3.141   2.441 -0.4082 -1.2157  0.2175
   71DOPC    C3 9696   4.262   3.277   2.220  0.0391 -0.0674 -0.3731
   71DOPC    HX 9697   4.275   3.298   2.328 -1.1329  1.3593 -0.4676
   71DOPC    HY 9698   4.190   3.355   2.186 -0.8430  0.6901  2.8658
   71DOPC   O31 9699   4.386   3.290   2.145 -0.0830 -0.2406  0.3060
   71DOPC   C31 9700   4.479   3.208   2.191  0.3583 -0.9977  1.3665
   71DOPC   O32 9701   4.474   3.140   2.294  0.1102 -0.1024  0.5203
   71DOPC   C32 9702   4.605   3.232   2.106  0.2297 -0.9312  0.2564
   71DOPC   H2X 9703   4.686   3.166   2.145  1.1304 -1.1407 -1.8024
   71DOPC   H2Y 9704   4.603   3.195   2.002  1.2623 -2.3825  0.7165
   71DOPC   C23 9705   4.018   3.073   2.588  0.5289 -0.4158 -0.0516
   71DOPC   H3R 9706   3.947   3.093   2.670  1.0243 -0.2160  0.3348
   71DOPC   H3S 9707   4.074   3.168   2.576 -0.4378  0.4322  1.7965
   71DOPC   C24 9708   4.110   2.961   2.640  0.4592  0.4080 -0.2403
   71DOPC   H4R 9709   4.189   2.933   2.567  1.2413  1.4670  0.1786
   71DOPC   H4S 9710   4.042   2.872   2.647  0.7095  0.0954 -1.5371
   71DOPC   C25 9711   4.177   3.009   2.769  0.8985 -0.1124 -0.3505
   71DOPC   H5R 9712   4.216   2.917   2.818 -2.3354 -0.5643  1.6636
   71DOPC   H5S 9713   4.092   3.036   2.834  1.6608 -1.3457  1.2425
   71DOPC   C26 9714   4.278   3.128   2.769 -0.3326 -0.8133  1.0738
   71DOPC   H6R 9715   4.347   3.111   2.854  0.9090  0.7207  0.4398
   71DOPC   H6S 9716   4.237   3.231   2.781 -0.3444 -0.9386  2.1323
   71DOPC   C27 9717   4.367   3.136   2.644 -0.2619 -0.2103 -0.5243
   71DOPC   H7R 9718   4.294   3.131   2.560 -0.7882 -0.1081 -0.0803
   71DOPC   H7S 9719   4.439   3.052   2.642 -0.2568 -0.2377  0.5100
   71DOPC   C28 9720   4.442   3.270   2.618 -0.3847  0.4004  0.0144
   71DOPC   H8R 9721   4.513   3.256   2.533 -3.5779 -0.3521 -2.7483
   71DOPC   H8S 9722   4.506   3.302   2.703  1.1442 -3.5293  0.5571
   71DOPC   C29 9723   4.343   3.377   2.588  0.0045 -0.4426 -0.4612
   71DOPC   H9R 9724   4.248   3.336   2.548  1.1443 -0.4622 -3.3949
   71DOPC  C210 9725   4.352   3.509   2.616  0.5804 -0.6540  0.1443
   71DOPC  H10R 9726   4.268   3.575   2.593  0.2041 -0.2591  2.3803
   71DOPC  C211 9727   4.468   3.572   2.694 -1.0058 -0.2732  0.1280
   71DOPC  H11R 9728   4.493   3.661   2.633 -1.0475  0.1629  0.7414
   71DOPC  H11S 9729   4.559   3.508   2.688 -0.0762  1.0255 -0.0802
   71DOPC  C212 9730   4.438   3.616   2.837 -0.3462  0.2329 -0.0399
   71DOPC  H12R 9731   4.342   3.670   2.825 -0.4682  0.1698  0.6059
   71DOPC  H12S 9732   4.526   3.681   2.859 -0.2763  0.5049 -1.0738
   71DOPC  C213 9733   4.419   3.508   2.947  0.0021  0.4941 -0.0284
   71DOPC  H13R 9734   4.495   3.428   2.932  0.7143  0.8275  1.5097
   71DOPC  H13S 9735   4.312   3.480   2.935 -0.0185  0.4369  0.2900
   71DOPC  C214 9736   4.457   3.574   3.087  0.5057 -0.3513  0.0039
   71DOPC  H14R 9737   4.550   3.634   3.082 -1.7761  3.4691 -0.1911
   71DOPC  H14S 9738   4.477   3.489   3.156 -0.7809  0.9613  2.1109
   71DOPC  C215 9739   4.345   3.663   3.151 -0.2644  0.5380  0.5739
   71DOPC  H15R 9740   4.270   3.591   3.190 -0.9797  0.5134 -0.7677
   71DOPC  H15S 9741   4.294   3.721   3.071 -0.8401  2.0329  1.9777
   71DOPC  C216 9742   4.415   3.756   3.248 -0.1846  0.5826  0.1410
   71DOPC  H16R 9743   4.509   3.798   3.206 -0.1092  0.8426  0.5525
   71DOPC  H16S 9744   4.341   3.839   3.259 -1.1945 -0.3916  0.9303
   71DOPC  C217 9745   4.451   3.692   3.383 -0.0119 -0.7873 -0.6886
   71DOPC  H17R 9746   4.535   3.622   3.365  1.9749  1.4338 -0.6565
   71DOPC  H17S 9747   4.358   3.649   3.426 -1.2261  0.5333 -1.8846
   71DOPC  C218 9748   4.507   3.802   3.477  0.5426 -0.1358  0.5458
   71DOPC  H18R 9749   4.531   3.760   3.578  1.1809  2.5624  1.6008
   71DOPC  H18S 9750   4.435   3.884   3.497  0.7983  0.7075 -1.7398
   71DOPC  H18T 9751   4.601   3.847   3.437  0.1287 -0.2704 -0.6083
   71DOPC   C33 9752   4.656   3.378   2.115 -0.3967  0.2997  0.0120
   71DOPC   H3X 9753   4.583   3.449   2.072  0.5320  1.1597 -0.1631
   71DOPC   H3Y 9754   4.741   3.388   2.045 -2.4246 -0.5940 -2.7465
   71DOPC   C34 9755   4.712   3.409   2.254 -0.5518 -0.1275 -0.1863
   71DOPC   H4X 9756   4.786   3.329   2.277  1.2912  0.9517 -1.9768
   71DOPC   H4Y 9757   4.637   3.419   2.335 -0.6351  2.7247 -0.5067
   71DOPC   C35 9758   4.796   3.536   2.250 -0.0547 -0.2613 -0.3348
   71DOPC   H5X 9759   4.737   3.624   2.215  1.3433 -0.1553 -2.6371
   71DOPC   H5Y 9760   4.874   3.511   2.174  1.1285  0.4293  0.6025
   71DOPC   C36 9761   4.870   3.572   2.386 -0.1453  0.5939  0.2715
   71DOPC   H6X 9762   4.949   3.495   2.400  0.6655  1.2672 -0.4768
   71DOPC   H6Y 9763   4.916   3.673   2.387  1.9461 -0.2790  2.4244
   71DOPC   C37 9764   4.776   3.580   2.507  0.5162 -0.3182  0.1490
   71DOPC   H7X 9765   4.694   3.651   2.482  0.4793 -0.1596  0.7110
   71DOPC   H7Y 9766   4.723   3.486   2.529 -0.5752 -0.0235 -1.1027
   71DOPC   C38 9767   4.844   3.628   2.635 -0.6223  0.1664  0.6454
   71DOPC   H8X 9768   4.775   3.685   2.700 -1.9838  0.7754 -1.2440
   71DOPC   H8Y 9769   4.908   3.712   2.601 -0.5013 -0.3237 -0.3943
   71DOPC   C39 9770   4.926   3.516   2.697  0.3782 -0.0879 -0.3476
   71DOPC   H9X 9771   4.993   3.462   2.628 -0.4876 -0.6190 -0.7965
   71DOPC  C310 9772   4.926   3.489   2.830 -0.2956  0.3458 -0.4909
   71DOPC  H10X 9773   4.995   3.408   2.861  1.4962  2.7041  2.1963
   71DOPC  C311 9774   4.868   3.555   2.949  0.2035  0.3333  0.2098
   71DOPC  H11X 9775   4.835   3.480   3.024  1.1423 -1.9404 -1.5653
   71DOPC  H11Y 9776   4.783   3.617   2.911  0.6987 -0.5956 -2.6173
   71DOPC  C312 9777   4.959   3.666   3.000 -0.5555 -0.2705 -0.1299
   71DOPC  H12X 9778   4.981   3.741   2.921 -0.8395  0.3711  0.3840
   71DOPC  H12Y 9779   5.055   3.627   3.038 -1.3115 -2.0123  0.0883
   71DOPC  C313 9780   4.906   3.740   3.124 -0.4480 -0.4470 -0.2776
   71DOPC  H13X 9781   4.965   3.834   3.130 -1.1593  0.1419 -1.8711
   71DOPC  H13Y 9782   4.799   3.769   3.111 -0.5808 -1.9133 -3.2751
   71DOPC  C314 9783   4.921   3.662   3.258 -0.9371  0.3073  0.0465
   71DOPC  H14X 9784   4.850   3.576   3.248  0.7662 -0.8844 -3.7416
   71DOPC  H14Y 9785   5.024   3.621   3.268 -1.0677 -0.0392 -0.0014
   71DOPC  C315 9786   4.897   3.752   3.378  0.2226  0.5886  0.4776
   71DOPC  H15X 9787   4.794   3.792   3.364 -0.8251 -2.3489 -0.9860
   71DOPC  H15Y 9788   4.961   3.842   3.365  2.5679 -1.2529 -1.9644
   71DOPC  C316 9789   4.897   3.682   3.517  0.0483 -0.7705  0.5755
   71DOPC  H16X 9790   4.814   3.609   3.525 -2.4938  1.7482 -1.1790
   71DOPC  H16Y 9791   4.990   3.621   3.520 -0.1733 -1.0994  1.0980
   71DOPC  C317 9792   4.888   3.779   3.638  0.4023 -0.4382 -0.5778
   71DOPC  H17X 9793   4.976   3.847   3.636 -0.8726  1.2947  0.0228
   71DOPC  H17Y 9794   4.805   3.849   3.617 -0.2732 -1.7171 -2.4888
   71DOPC  C318 9795   4.867   3.717   3.779  1.1104 -0.1831  0.0929
   71DOPC  H18X 9796   4.937   3.631   3.783  2.2380  0.7482  1.1755
   71DOPC  H18Y 9797   4.887   3.793   3.858  1.2731 -0.9467  0.7940
   71DOPC  H18Z 9798   4.765   3.675   3.787  0.6830  0.7485 -0.1944
   72DOPC     N 9799   1.293   2.394   2.998  0.1786  0.5221 -0.5322
   72DOPC   C12 9800   1.237   2.347   3.133  0.5168  0.3337  0.6219
   72DOPC  H12A 9801   1.229   2.240   3.123 -1.7250  0.5787 -0.9617
   72DOPC  H12B 9802   1.136   2.383   3.138 -0.2472 -1.2761 -1.7564
   72DOPC   C13 9803   1.436   2.357   2.973 -0.8112 -0.3387 -0.7975
   72DOPC  H13A 9804   1.466   2.254   2.982  0.6715  0.0340 -1.2786
   72DOPC  H13B 9805   1.475   2.391   2.879  2.3360 -1.3687  0.0189
   72DOPC  H13C 9806   1.497   2.398   3.052 -2.1589 -1.3072  0.8238
   72DOPC   C14 9807   1.282   2.543   2.988 -0.3642 -0.5353 -0.4833
   72DOPC  H14A 9808   1.312   2.594   3.079 -1.3854 -1.7230  0.5625
   72DOPC  H14B 9809   1.340   2.579   2.905 -1.2257 -0.3358 -1.0131
   72DOPC  H14C 9810   1.181   2.574   2.964 -0.5411  0.4828  1.3806
   72DOPC   C15 9811   1.212   2.333   2.890 -0.2494 -0.2666 -0.7685
   72DOPC  H15A 9812   1.255   2.344   2.791  0.8453  0.0070 -0.2774
   72DOPC  H15B 9813   1.119   2.389   2.891  0.5903  1.1752  0.4057
   72DOPC  H15C 9814   1.186   2.231   2.912 -0.7919  0.2142  0.9836
   72DOPC   C11 9815   1.318   2.369   3.264  0.1873 -0.4423  0.3512
   72DOPC  H11A 9816   1.310   2.478   3.284  0.0653 -0.0296 -1.7011
   72DOPC  H11B 9817   1.258   2.326   3.347  0.4744  1.0992  1.3945
   72DOPC     P 9818   1.473   2.176   3.310  0.0455  0.1146  0.4156
   72DOPC   O13 9819   1.620   2.138   3.292 -0.3826 -0.2885  0.1693
   72DOPC   O14 9820   1.377   2.081   3.249 -0.4948  0.0911  0.4092
   72DOPC   O12 9821   1.453   2.326   3.247 -0.1173  0.0958  0.6298
   72DOPC   O11 9822   1.432   2.210   3.459  0.3674 -0.1994  0.3816
   72DOPC    C1 9823   1.537   2.246   3.549 -0.1699 -0.3481 -0.3610
   72DOPC    HA 9824   1.493   2.314   3.625  0.1851 -0.7734  0.2350
   72DOPC    HB 9825   1.614   2.308   3.499 -0.6792  0.9786  0.4336
   72DOPC    C2 9826   1.605   2.122   3.616  0.6187 -0.3616  0.6562
   72DOPC    HS 9827   1.604   2.035   3.547  1.0832  0.1241  0.0235
   72DOPC   O21 9828   1.521   2.105   3.733 -0.3497  0.0600 -0.1666
   72DOPC   C21 9829   1.414   2.027   3.723  0.0467  0.0233 -0.8802
   72DOPC   O22 9830   1.400   1.940   3.633  0.5972 -1.1942  0.7434
   72DOPC   C22 9831   1.321   2.053   3.841  0.1140  0.0962  0.6484
   72DOPC   H2R 9832   1.253   2.133   3.805 -0.6495 -0.9891 -0.4381
   72DOPC   H2S 9833   1.391   2.087   3.920 -0.0913  0.8509  0.5140
   72DOPC    C3 9834   1.754   2.147   3.658 -0.4280 -0.2269  0.8056
   72DOPC    HX 9835   1.774   2.047   3.703  3.0528  0.7838  1.8018
   72DOPC    HY 9836   1.765   2.228   3.734 -1.3063 -0.0685  0.7750
   72DOPC   O31 9837   1.830   2.169   3.537  0.6270  0.2830 -0.1972
   72DOPC   C31 9838   1.886   2.067   3.469  0.5053 -1.5822  0.6033
   72DOPC   O32 9839   1.868   1.948   3.487  0.0984 -0.0513  0.1110
   72DOPC   C32 9840   1.970   2.122   3.360  0.6924 -0.2423 -0.5262
   72DOPC   H2X 9841   1.931   2.084   3.263  2.3840  2.1358 -2.2577
   72DOPC   H2Y 9842   1.964   2.233   3.369  4.6927  0.0761  0.0186
   72DOPC   C23 9843   1.234   1.931   3.883  0.6588 -0.9058  0.0991
   72DOPC   H3R 9844   1.172   1.971   3.966 -0.7278  2.0935 -2.1948
   72DOPC   H3S 9845   1.294   1.844   3.917  1.3206 -0.0019  1.3622
   72DOPC   C24 9846   1.133   1.887   3.779  0.5368 -0.2665  0.0713
   72DOPC   H4R 9847   1.175   1.841   3.687 -0.2492  2.1221 -1.5996
   72DOPC   H4S 9848   1.073   1.968   3.731  1.1981  0.7374  0.9219
   72DOPC   C25 9849   1.025   1.788   3.838  0.0533  0.4590  0.3817
   72DOPC   H5R 9850   0.958   1.834   3.913  1.1332  0.2282  1.5193
   72DOPC   H5S 9851   1.074   1.703   3.889 -1.4433 -0.3366  0.5370
   72DOPC   C26 9852   0.946   1.716   3.716  0.3689 -0.4673 -0.6261
   72DOPC   H6R 9853   1.033   1.704   3.648  0.9175  1.9742 -0.4596
   72DOPC   H6S 9854   0.879   1.794   3.676  0.9214  0.1466 -0.3681
   72DOPC   C27 9855   0.883   1.586   3.756  0.5190  0.3231  0.0496
   72DOPC   H7R 9856   0.799   1.602   3.828 -1.2854 -0.7705 -1.7095
   72DOPC   H7S 9857   0.968   1.525   3.791 -1.8697 -2.7509  0.9614
   72DOPC   C28 9858   0.815   1.519   3.638 -0.1914 -0.0015 -0.2332
   72DOPC   H8R 9859   0.887   1.538   3.556  1.9494 -0.6623  1.4148
   72DOPC   H8S 9860   0.728   1.577   3.598  0.0039 -0.5560 -1.5268
   72DOPC   C29 9861   0.791   1.367   3.651 -0.5414  0.1301 -0.0111
   72DOPC   H9R 9862   0.848   1.329   3.738  1.6489  1.2717 -0.8764
   72DOPC  C210 9863   0.680   1.301   3.605 -0.5363 -0.0123  0.3849
   72DOPC  H10R 9864   0.680   1.193   3.622  1.7932 -0.0709  0.2741
   72DOPC  C211 9865   0.591   1.352   3.499 -0.0257 -0.5847  0.3882
   72DOPC  H11R 9866   0.646   1.392   3.411 -0.6695 -1.9552 -0.6836
   72DOPC  H11S 9867   0.542   1.448   3.527  2.3357  0.9753 -0.5767
   72DOPC  C212 9868   0.486   1.248   3.443  0.0051  0.1687 -0.5575
   72DOPC  H12R 9869   0.541   1.153   3.425 -0.4417 -0.0101 -0.9976
   72DOPC  H12S 9870   0.450   1.278   3.342 -3.8268  0.5627  0.7678
   72DOPC  C213 9871   0.366   1.237   3.533  0.5448  0.2195 -0.0995
   72DOPC  H13R 9872   0.320   1.333   3.563 -0.6479 -0.9498  2.1467
   72DOPC  H13S 9873   0.412   1.195   3.625  1.3715  1.4160  0.0545
   72DOPC  C214 9874   0.257   1.135   3.489  0.1621 -0.3497  0.3825
   72DOPC  H14R 9875   0.193   1.123   3.580 -0.1641  2.2117  0.5759
   72DOPC  H14S 9876   0.316   1.042   3.476  2.2429  0.9449  0.1976
   72DOPC  C215 9877   0.187   1.174   3.361  0.3676 -0.1598 -0.2649
   72DOPC  H15R 9878   0.264   1.194   3.284  0.4728 -0.5666 -0.2681
   72DOPC  H15S 9879   0.139   1.272   3.384 -0.1850 -0.1752 -1.2574
   72DOPC  C216 9880   0.093   1.063   3.307  0.3902  0.4898  0.1672
   72DOPC  H16R 9881  -0.010   1.068   3.347 -0.4973 -3.5706 -1.1871
   72DOPC  H16S 9882   0.128   0.971   3.358  0.4985 -1.0965 -2.6044
   72DOPC  C217 9883   0.104   1.050   3.157  0.0012  1.1804 -0.4908
   72DOPC  H17R 9884   0.213   1.051   3.137  0.4336  0.6557  1.5785
   72DOPC  H17S 9885   0.052   1.136   3.110  0.5664  0.7171 -2.0372
   72DOPC  C218 9886   0.045   0.915   3.118  0.2416 -0.1113  0.6474
   72DOPC  H18R 9887   0.092   0.832   3.174  0.3720 -0.1227  0.5214
   72DOPC  H18S 9888   0.053   0.897   3.009 -1.4141 -0.0406  0.4846
   72DOPC  H18T 9889  -0.063   0.916   3.143 -0.1009 -1.3106 -0.6571
   72DOPC   C33 9890   2.125   2.088   3.360 -0.2325  0.5166 -0.3943
   72DOPC   H3X 9891   2.168   2.107   3.260 -1.6683  0.6232 -1.0232
   72DOPC   H3Y 9892   2.133   1.980   3.384 -2.2469  0.4092 -0.0239
   72DOPC   C34 9893   2.193   2.187   3.454  0.2489  0.0904  0.0552
   72DOPC   H4X 9894   2.157   2.289   3.432  1.2621 -0.1387 -3.1643
   72DOPC   H4Y 9895   2.302   2.183   3.434 -0.1439 -2.3683 -2.1315
   72DOPC   C35 9896   2.176   2.150   3.607  0.3695 -0.3808 -0.9087
   72DOPC   H5X 9897   2.212   2.046   3.621 -1.7619 -0.9112  1.1453
   72DOPC   H5Y 9898   2.071   2.165   3.640  1.1740  1.4205  1.0104
   72DOPC   C36 9899   2.251   2.242   3.700 -0.7475  0.0270  0.3317
   72DOPC   H6X 9900   2.293   2.176   3.779  2.3977 -1.2090 -2.1072
   72DOPC   H6Y 9901   2.350   2.270   3.657 -0.4017 -1.9486 -0.2788
   72DOPC   C37 9902   2.171   2.356   3.752 -0.0423 -0.0535 -0.1599
   72DOPC   H7X 9903   2.146   2.429   3.672 -3.5281  0.5305  1.2518
   72DOPC   H7Y 9904   2.070   2.317   3.778 -0.1517  0.9826  1.0888
   72DOPC   C38 9905   2.232   2.436   3.871  0.3300 -0.3221  0.3963
   72DOPC   H8X 9906   2.168   2.525   3.889 -0.3977 -0.7827  0.1080
   72DOPC   H8Y 9907   2.334   2.476   3.852  0.0801  0.0148 -0.2418
   72DOPC   C39 9908   2.219   2.357   3.998  0.6689  0.2436 -0.3331
   72DOPC   H9X 9909   2.303   2.288   4.016 -1.6537 -3.0800 -1.1610
   72DOPC  C310 9910   2.121   2.355   4.090 -0.2490 -0.4809  0.2779
   72DOPC  H10X 9911   2.133   2.294   4.181  1.9975 -2.5785 -1.3069
   72DOPC  C311 9912   2.005   2.450   4.094 -0.5699 -0.1282  0.9489
   72DOPC  H11X 9913   1.998   2.482   3.988  0.7857 -3.8730 -0.4605
   72DOPC  H11Y 9914   2.009   2.533   4.166 -1.0467  1.8726 -1.2077
   72DOPC  C312 9915   1.877   2.388   4.148  0.1724  0.4438  0.1809
   72DOPC  H12X 9916   1.846   2.297   4.091 -0.4131  0.7094  0.0681
   72DOPC  H12Y 9917   1.892   2.350   4.251  1.4234 -1.7999 -0.7402
   72DOPC  C313 9918   1.758   2.490   4.129 -0.1666 -0.6913  0.3435
   72DOPC  H13X 9919   1.793   2.580   4.185  1.6576 -1.6569  0.8594
   72DOPC  H13Y 9920   1.757   2.514   4.021  5.0870 -1.5230 -0.1527
   72DOPC  C314 9921   1.626   2.446   4.180  0.2974  0.0241  0.0056
   72DOPC  H14X 9922   1.598   2.354   4.123  0.4155 -0.0123  0.0062
   72DOPC  H14Y 9923   1.644   2.413   4.284  0.3355 -1.1522 -0.3611
   72DOPC  C315 9924   1.503   2.539   4.176 -0.1656  0.4671 -0.4926
   72DOPC  H15X 9925   1.525   2.633   4.231  0.2084  0.5045 -0.7033
   72DOPC  H15Y 9926   1.421   2.485   4.228  0.0812 -1.1980 -1.7416
   72DOPC  C316 9927   1.446   2.579   4.043  0.1679  0.2522  0.2182
   72DOPC  H16X 9928   1.357   2.645   4.056 -0.2081  0.1400 -1.4953
   72DOPC  H16Y 9929   1.521   2.637   3.985 -0.3672  0.4957 -0.2378
   72DOPC  C317 9930   1.396   2.462   3.954 -0.2539 -0.2241  0.5526
   72DOPC  H17X 9931   1.490   2.409   3.927 -0.1831 -0.3038  0.9428
   72DOPC  H17Y 9932   1.320   2.403   4.009  0.2196 -0.9078  0.4845
   72DOPC  C318 9933   1.331   2.513   3.828 -0.0420 -0.6017 -0.1733
   72DOPC  H18X 9934   1.270   2.603   3.849  0.4307 -0.0602 -1.0314
   72DOPC  H18Y 9935   1.411   2.531   3.753  1.8588 -0.0644  1.9007
   72DOPC  H18Z 9936   1.267   2.429   3.793  0.0464 -0.1491 -1.5053
   73DOPC     N 9937   1.803   2.659   2.914 -0.1208  0.4679 -0.4768
   73DOPC   C12 9938   1.865   2.695   2.784  0.0945  0.3516  0.5899
   73DOPC  H12A 9939   1.778   2.695   2.720  0.6443  0.1316 -0.1797
   73DOPC  H12B 9940   1.936   2.625   2.742 -0.4313  1.2130 -1.9493
   73DOPC   C13 9941   1.681   2.731   2.956  0.2778 -0.7421  0.5106
   73DOPC  H13A 9942   1.613   2.723   2.873  3.8943 -0.0141 -2.8296
   73DOPC  H13B 9943   1.631   2.703   3.047 -1.8034 -3.0151 -1.1827
   73DOPC  H13C 9944   1.709   2.835   2.966 -1.4306 -0.0054 -1.5540
   73DOPC   C14 9945   1.907   2.668   3.029  0.4751 -0.8753 -0.2199
   73DOPC  H14A 9946   2.004   2.630   3.001 -0.0069 -2.1146 -0.2295
   73DOPC  H14B 9947   1.924   2.771   3.057 -0.8909 -0.2885 -1.3833
   73DOPC  H14C 9948   1.892   2.605   3.115 -2.8685 -0.3157 -0.2592
   73DOPC   C15 9949   1.767   2.516   2.899 -0.0137 -0.1139 -0.0837
   73DOPC  H15A 9950   1.708   2.493   2.812 -1.6322  1.1068  0.6257
   73DOPC  H15B 9951   1.715   2.474   2.984 -2.0394 -0.1656 -1.2966
   73DOPC  H15C 9952   1.858   2.460   2.882 -0.2765 -0.5605 -0.0390
   73DOPC   C11 9953   1.929   2.832   2.772 -0.0340  0.3046 -0.1426
   73DOPC  H11A 9954   2.007   2.850   2.849  1.7886 -0.5811 -1.6923
   73DOPC  H11B 9955   1.986   2.847   2.678  0.1997  0.5781  0.0383
   73DOPC     P 9956   1.710   2.958   2.680 -0.2939 -0.5194 -0.1835
   73DOPC   O13 9957   1.634   2.833   2.650  0.5694 -0.2091  0.5837
   73DOPC   O14 9958   1.764   3.035   2.568 -0.1530 -0.3283  0.0263
   73DOPC   O12 9959   1.826   2.932   2.783 -0.1794 -0.4499 -0.4338
   73DOPC   O11 9960   1.607   3.054   2.758  0.4769  0.3441  0.7581
   73DOPC    C1 9961   1.636   3.193   2.786  0.5271 -0.3386 -0.4842
   73DOPC    HA 9962   1.611   3.260   2.701  0.7696 -1.5735 -1.5653
   73DOPC    HB 9963   1.743   3.209   2.812  0.6200 -1.0009 -0.4488
   73DOPC    C2 9964   1.560   3.243   2.912  0.0802  0.0869  0.5818
   73DOPC    HS 9965   1.601   3.342   2.939 -1.5930  0.8786  0.3360
   73DOPC   O21 9966   1.571   3.152   3.021 -0.0203  1.1551 -0.3230
   73DOPC   C21 9967   1.681   3.160   3.092  0.5891  0.7497  1.4491
   73DOPC   O22 9968   1.770   3.236   3.064  0.4326  0.2900 -0.9364
   73DOPC   C22 9969   1.688   3.056   3.201  0.2925  0.0572 -0.4347
   73DOPC   H2R 9970   1.660   2.954   3.167  0.8896 -0.6761  1.1922
   73DOPC   H2S 9971   1.617   3.086   3.281 -0.3091 -0.6716 -0.6827
   73DOPC    C3 9972   1.410   3.270   2.881  0.1058  1.1816 -0.1988
   73DOPC    HX 9973   1.372   3.173   2.842  1.8832  0.0841  0.6564
   73DOPC    HY 9974   1.409   3.354   2.808  1.1941  0.5240 -1.0103
   73DOPC   O31 9975   1.337   3.308   3.005 -0.1562 -0.8169 -0.2271
   73DOPC   C31 9976   1.267   3.415   3.000  0.4038  0.5615  0.1455
   73DOPC   O32 9977   1.235   3.478   2.901 -0.3689 -0.3905 -0.0638
   73DOPC   C32 9978   1.219   3.452   3.141  0.9973  0.5891  0.5132
   73DOPC   H2X 9979   1.207   3.359   3.201  0.6195  1.6670  2.1992
   73DOPC   H2Y 9980   1.302   3.508   3.191  1.5728  0.4471 -0.2663
   73DOPC   C23 9981   1.830   3.056   3.265 -0.6197 -0.2234 -0.4741
   73DOPC   H3R 9982   1.855   3.158   3.301 -1.7860  0.2986 -1.0661
   73DOPC   H3S 9983   1.900   3.026   3.184  0.1343  1.1333 -0.3538
   73DOPC   C24 9984   1.841   2.975   3.397  0.3533  0.7755 -0.0214
   73DOPC   H4R 9985   1.749   3.006   3.450 -1.4193 -1.3713 -1.6602
   73DOPC   H4S 9986   1.937   3.001   3.447  0.3479  0.3484  0.2113
   73DOPC   C25 9987   1.837   2.822   3.372 -0.1878  0.2187 -0.3755
   73DOPC   H5R 9988   1.938   2.782   3.353 -0.8078 -2.0620  0.7496
   73DOPC   H5S 9989   1.770   2.782   3.292 -0.0450  1.9244 -1.3826
   73DOPC   C26 9990   1.803   2.748   3.505  0.4131 -0.1033 -0.7391
   73DOPC   H6R 9991   1.811   2.641   3.476 -1.5021 -0.0651 -1.5707
   73DOPC   H6S 9992   1.703   2.771   3.547  1.5231 -0.4639  2.3760
   73DOPC   C27 9993   1.889   2.787   3.631 -0.2247  0.7752 -0.3304
   73DOPC   H7R 9994   1.903   2.897   3.642  2.6486  0.3603  1.3881
   73DOPC   H7S 9995   1.992   2.746   3.618  0.0728  0.5509  2.1827
   73DOPC   C28 9996   1.815   2.742   3.759  0.2231 -0.5833 -0.1468
   73DOPC   H8R 9997   1.799   2.633   3.750  1.9972 -0.8533 -0.4651
   73DOPC   H8S 9998   1.712   2.784   3.759 -0.2091 -1.6036 -0.7360
   73DOPC   C29 9999   1.894   2.776   3.881 -0.1957  0.9318  0.6964
   73DOPC   H9R10000   1.973   2.703   3.901 -0.4188 -0.9508 -3.9245
   73DOPC  C21010001   1.868   2.882   3.964  0.2519  0.5056  0.3342
   73DOPC  H10R10002   1.934   2.893   4.051  0.1719 -0.0758  0.4686
   73DOPC  C21110003   1.771   2.995   3.950  0.5342 -0.1946  0.2628
   73DOPC  H11R10004   1.742   3.008   3.843  0.4945 -0.5478  0.2272
   73DOPC  H11S10005   1.831   3.082   3.983  1.3443 -0.6740  0.0961
   73DOPC  C21210006   1.637   2.978   4.024 -0.1476  0.0036 -0.0897
   73DOPC  H12R10007   1.566   2.899   3.994 -0.4895 -0.4642  1.8544
   73DOPC  H12S10008   1.579   3.072   4.014 -1.6128 -0.6839  1.4716
   73DOPC  C21310009   1.641   2.950   4.173 -0.0987  0.3111 -0.8191
   73DOPC  H13R10010   1.689   3.040   4.218  2.2658 -1.3220  0.1100
   73DOPC  H13S10011   1.701   2.858   4.190 -0.1683  0.3376 -0.4300
   73DOPC  C21410012   1.501   2.931   4.237  0.1389  0.1557  0.2333
   73DOPC  H14R10013   1.446   2.860   4.171  0.5163 -0.1460  0.2389
   73DOPC  H14S10014   1.443   3.026   4.242 -0.2329 -0.1132  1.1368
   73DOPC  C21510015   1.521   2.882   4.381  0.0691  1.0209 -0.6312
   73DOPC  H15R10016   1.594   2.947   4.434  1.2081  0.0144 -0.9272
   73DOPC  H15S10017   1.551   2.776   4.395 -1.2971  0.3851 -2.2064
   73DOPC  C21610018   1.383   2.885   4.457 -0.0422  0.4190  0.9086
   73DOPC  H16R10019   1.298   2.821   4.426 -0.5588  0.0956  2.8838
   73DOPC  H16S10020   1.350   2.991   4.453  3.5753  1.6846  0.8050
   73DOPC  C21710021   1.397   2.862   4.608  1.0838  0.0727  0.5087
   73DOPC  H17R10022   1.302   2.881   4.664  1.2133 -0.4215  0.9045
   73DOPC  H17S10023   1.466   2.937   4.652  0.3118  1.0915  0.0251
   73DOPC  C21810024   1.446   2.716   4.633  0.1364 -0.6869  0.4066
   73DOPC  H18R10025   1.550   2.719   4.596  0.4053  2.8413  1.0693
   73DOPC  H18S10026   1.391   2.650   4.562 -2.4746  2.7653 -1.1068
   73DOPC  H18T10027   1.441   2.684   4.739 -0.8852 -0.5401  0.4153
   73DOPC   C3310028   1.110   3.559   3.152 -0.2055 -0.1584  0.0212
   73DOPC   H3X10029   1.021   3.517   3.101 -1.2468  1.4849  0.4204
   73DOPC   H3Y10030   1.139   3.648   3.092  0.6923 -0.5415 -0.1323
   73DOPC   C3410031   1.071   3.588   3.293  0.6837  0.2283  0.0368
   73DOPC   H4X10032   1.023   3.493   3.325 -1.4809  0.3457 -2.5218
   73DOPC   H4Y10033   0.983   3.655   3.301 -0.3292 -1.0987  0.3530
   73DOPC   C3510034   1.183   3.635   3.384 -0.1441  0.0458 -0.6297
   73DOPC   H5X10035   1.209   3.730   3.333  0.6019  0.1948  0.0054
   73DOPC   H5Y10036   1.266   3.561   3.384 -0.8617 -0.8035 -2.0550
   73DOPC   C3610037   1.134   3.658   3.533 -0.1278 -0.4378  0.8889
   73DOPC   H6X10038   1.176   3.757   3.561  1.6757 -0.8585 -0.1260
   73DOPC   H6Y10039   1.025   3.640   3.532 -0.3330 -0.3243 -4.1173
   73DOPC   C3710040   1.217   3.562   3.626  0.0662  1.1197  0.8558
   73DOPC   H7X10041   1.188   3.460   3.591 -1.9866  2.1264 -0.5718
   73DOPC   H7Y10042   1.323   3.561   3.592  0.1946 -0.8869  1.1763
   73DOPC   C3810043   1.185   3.553   3.778  0.5791 -0.6855 -0.6726
   73DOPC   H8X10044   1.245   3.463   3.804  0.1625 -0.5532  0.8720
   73DOPC   H8Y10045   1.082   3.520   3.805  1.2281 -0.5755  2.3057
   73DOPC   C3910046   1.235   3.679   3.848 -0.5822  0.1321 -0.4822
   73DOPC   H9X10047   1.328   3.724   3.811  0.0569 -0.4947  0.3365
   73DOPC  C31010048   1.187   3.717   3.967 -0.6916  0.0586  0.4745
   73DOPC  H10X10049   1.245   3.793   4.023  2.2018 -1.9033  0.3944
   73DOPC  C31110050   1.070   3.667   4.047 -0.6029 -1.0336  0.1399
   73DOPC  H11X10051   0.999   3.616   3.979 -3.2980  0.7601  1.4053
   73DOPC  H11Y10052   1.021   3.759   4.087  0.6148 -1.4227  2.7590
   73DOPC  C31210053   1.106   3.580   4.164 -0.2587  0.5038 -0.1149
   73DOPC  H12X10054   1.171   3.637   4.234 -1.0159 -0.0438  1.0613
   73DOPC  H12Y10055   1.160   3.485   4.142  0.5686  0.7699  0.6681
   73DOPC  C31310056   0.985   3.549   4.248  0.5517 -0.9629 -0.1843
   73DOPC  H13X10057   0.950   3.651   4.274 -3.0624 -1.4871 -2.2715
   73DOPC  H13Y10058   0.910   3.509   4.176  1.2151 -2.2084 -0.1975
   73DOPC  C31410059   0.985   3.476   4.385  0.4079  0.6726  0.4500
   73DOPC  H14X10060   0.882   3.461   4.424 -0.5902  2.9539 -1.0798
   73DOPC  H14Y10061   1.021   3.375   4.357  1.5643  0.7379  1.6260
   73DOPC  C31510062   1.085   3.524   4.492 -0.6593 -0.1617  0.3033
   73DOPC  H15X10063   1.073   3.631   4.521  1.0303  0.3271 -0.6208
   73DOPC  H15Y10064   1.189   3.518   4.454 -0.3490  3.3019  0.2158
   73DOPC  C31610065   1.093   3.428   4.614 -0.0281 -0.1419  0.6918
   73DOPC  H16X10066   0.989   3.427   4.653 -0.0823 -3.4175  0.7101
   73DOPC  H16Y10067   1.111   3.327   4.572 -1.5161 -0.3477  0.5247
   73DOPC  C31710068   1.191   3.461   4.724  0.4788 -0.4589 -0.0948
   73DOPC  H17X10069   1.290   3.489   4.683  0.3651  0.4599  0.2467
   73DOPC  H17Y10070   1.172   3.552   4.784  0.3328 -1.1588  0.9532
   73DOPC  C31810071   1.211   3.342   4.820  0.0552  0.4325  0.3117
   73DOPC  H18X10072   1.123   3.325   4.884  0.7147 -0.2214  1.0670
   73DOPC  H18Y10073   1.220   3.245   4.767  0.1272  0.3722  0.4334
   73DOPC  H18Z10074   1.302   3.361   4.882  0.1691  0.6744  0.0757
   74DOPC     N10075   5.325   2.023   1.995 -0.2448  0.5591  0.2635
   74DOPC   C1210076   5.261   1.904   2.067 -0.8051  0.7655  0.1096
   74DOPC  H12A10077   5.325   1.817   2.064 -0.4496  0.9881  1.0460
   74DOPC  H12B10078   5.169   1.870   2.022 -0.3628  0.2535 -0.4236
   74DOPC   C1310079   5.382   1.975   1.863 -0.4780 -0.7447 -0.2208
   74DOPC  H13A10080   5.411   2.065   1.811 -0.8069 -0.6676 -0.2780
   74DOPC  H13B10081   5.458   1.900   1.878  1.9220  1.5514 -0.2177
   74DOPC  H13C10082   5.304   1.929   1.803  0.7875 -2.5131 -0.5818
   74DOPC   C1410083   5.435   2.084   2.078  0.3696  0.5303  0.1448
   74DOPC  H14A10084   5.526   2.027   2.078  0.0153 -0.1333 -2.1781
   74DOPC  H14B10085   5.465   2.177   2.032 -1.9903  0.2042 -2.3275
   74DOPC  H14C10086   5.401   2.100   2.180  1.6132 -0.8163  0.8091
   74DOPC   C1510087   5.221   2.129   1.962  0.1851  0.4283 -0.3862
   74DOPC  H15A10088   5.136   2.088   1.909  0.8254 -0.9944 -0.3461
   74DOPC  H15B10089   5.272   2.207   1.907  1.4790  0.9151  1.3967
   74DOPC  H15C10090   5.177   2.164   2.055  1.4162  1.3542 -0.1315
   74DOPC   C1110091   5.227   1.915   2.212  0.3394 -0.2381 -0.3583
   74DOPC  H11A10092   5.202   1.822   2.266  0.2300 -0.6910 -1.1818
   74DOPC  H11B10093   5.329   1.937   2.251  1.3607 -2.8514 -1.3197
   74DOPC     P10094   4.984   2.002   2.217 -0.0135  0.1658  0.1558
   74DOPC   O1310095   4.943   1.881   2.144  0.1774 -0.4726 -0.7610
   74DOPC   O1410096   4.921   2.121   2.155 -0.7290 -0.0291  0.1789
   74DOPC   O1210097   5.135   2.023   2.239  0.0363  0.0260 -0.4051
   74DOPC   O1110098   4.938   1.985   2.372  0.3489 -0.0608  0.4468
   74DOPC    C110099   4.805   2.021   2.408 -0.6858  0.1341  1.2897
   74DOPC    HA10100   4.761   1.955   2.486 -1.0542 -0.1234  0.8679
   74DOPC    HB10101   4.735   2.008   2.323 -0.3486 -1.4224  1.2081
   74DOPC    C210102   4.801   2.169   2.457  0.0930  0.0459  0.2473
   74DOPC    HS10103   4.876   2.224   2.396 -0.7259 -1.1718 -1.9627
   74DOPC   O2110104   4.843   2.160   2.596  0.5432 -0.6777 -0.2096
   74DOPC   C2110105   4.882   2.273   2.652 -0.0248 -0.2792 -0.3291
   74DOPC   O2210106   4.912   2.374   2.587 -0.1220  0.4941  0.3648
   74DOPC   C2210107   4.894   2.263   2.798  0.9611  0.3643  0.2841
   74DOPC   H2R10108   4.991   2.217   2.827  1.0100  0.1141 -0.2528
   74DOPC   H2S10109   4.802   2.205   2.820  0.5617  0.6096 -0.7022
   74DOPC    C310110   4.661   2.232   2.435  0.9452 -0.0066  0.6532
   74DOPC    HX10111   4.576   2.179   2.484 -1.9713  2.3361 -1.4924
   74DOPC    HY10112   4.635   2.222   2.327 -3.5715  3.3932  1.1374
   74DOPC   O3110113   4.655   2.364   2.491  0.2940  0.5180 -0.4690
   74DOPC   C3110114   4.685   2.456   2.409  0.5913  0.0481  0.3327
   74DOPC   O3210115   4.720   2.445   2.291 -0.0105 -0.0229 -0.1722
   74DOPC   C3210116   4.669   2.593   2.474 -0.4953  0.0734 -0.4839
   74DOPC   H2X10117   4.690   2.573   2.581 -0.4882  2.1676 -0.0443
   74DOPC   H2Y10118   4.738   2.667   2.428 -0.3929  1.5766  1.8841
   74DOPC   C2310119   4.863   2.398   2.866  0.2444 -0.8120  0.1938
   74DOPC   H3R10120   4.770   2.447   2.829  0.4430  0.7516  1.6225
   74DOPC   H3S10121   4.937   2.472   2.829  1.7623 -2.2796  0.1742
   74DOPC   C2410122   4.887   2.412   3.012 -0.2654 -0.2988 -0.5842
   74DOPC   H4R10123   4.802   2.368   3.069  0.4312  1.3347  1.8892
   74DOPC   H4S10124   4.886   2.522   3.030  0.1472  0.0683 -2.5401
   74DOPC   C2510125   5.020   2.350   3.053 -0.5194  0.1514 -0.0707
   74DOPC   H5R10126   5.090   2.414   2.996 -0.4820 -1.9112 -2.4916
   74DOPC   H5S10127   5.034   2.243   3.026  2.2085  0.4395 -0.0424
   74DOPC   C2610128   5.031   2.355   3.204 -0.4460  0.0084 -1.0512
   74DOPC   H6R10129   4.948   2.296   3.247 -1.0963  1.4168 -0.3342
   74DOPC   H6S10130   5.022   2.457   3.247  3.4122 -0.5951  1.7063
   74DOPC   C2710131   5.170   2.298   3.252  1.1557 -0.2289  0.0296
   74DOPC   H7R10132   5.235   2.378   3.295  0.6621 -0.2640  0.8557
   74DOPC   H7S10133   5.224   2.256   3.164 -1.1646 -0.7043 -1.2516
   74DOPC   C2810134   5.151   2.186   3.363 -0.3866 -0.0735  0.7256
   74DOPC   H8R10135   5.254   2.144   3.372 -0.6328 -1.4865 -2.1159
   74DOPC   H8S10136   5.099   2.101   3.315  1.2354  1.2663 -4.0538
   74DOPC   C2910137   5.095   2.248   3.488 -0.1260 -0.4059  0.9153
   74DOPC   H9R10138   4.994   2.291   3.495  0.1120 -0.1006  3.4134
   74DOPC  C21010139   5.151   2.238   3.606  0.5345  0.2560 -0.0213
   74DOPC  H10R10140   5.102   2.288   3.690  1.3827 -0.5388  0.9783
   74DOPC  C21110141   5.274   2.167   3.644  0.3540  0.4886  0.2918
   74DOPC  H11R10142   5.351   2.160   3.564  2.1703  1.1359  1.9213
   74DOPC  H11S10143   5.261   2.064   3.681 -2.2810  0.2105 -1.1378
   74DOPC  C21210144   5.343   2.264   3.745  0.4185 -0.4049  0.4434
   74DOPC  H12R10145   5.420   2.202   3.796 -1.1182  0.0617  3.5316
   74DOPC  H12S10146   5.267   2.295   3.819 -1.6095  0.6892 -1.9377
   74DOPC  C21310147   5.398   2.395   3.683  0.3531 -0.1848  0.0915
   74DOPC  H13R10148   5.337   2.425   3.596  1.2806  0.5296 -0.3310
   74DOPC  H13S10149   5.492   2.370   3.628  0.3459  1.1249 -0.5503
   74DOPC  C21410150   5.428   2.509   3.775  0.0249  0.1509  0.0684
   74DOPC  H14R10151   5.347   2.526   3.849  0.0198  0.3879  0.0086
   74DOPC  H14S10152   5.450   2.599   3.714 -1.3477 -0.4438 -1.3760
   74DOPC  C21510153   5.554   2.475   3.854  0.2016  0.2833 -0.2133
   74DOPC  H15R10154   5.643   2.477   3.788 -0.4273  1.5592 -1.0661
   74DOPC  H15S10155   5.550   2.366   3.874  2.9697  0.2980  0.8286
   74DOPC  C21610156   5.566   2.559   3.982 -0.6918  0.2146  0.6886
   74DOPC  H16R10157   5.471   2.542   4.038 -0.6960 -0.1646  0.5681
   74DOPC  H16S10158   5.560   2.664   3.946  0.7414  0.3373  0.7644
   74DOPC  C21710159   5.684   2.508   4.056  0.3300  0.0644 -0.2927
   74DOPC  H17R10160   5.684   2.399   4.077 -0.2593  0.7645  4.4273
   74DOPC  H17S10161   5.697   2.570   4.147  1.8472 -1.7581  0.8097
   74DOPC  C21810162   5.810   2.538   3.986 -0.2774  0.1537 -0.2330
   74DOPC  H18R10163   5.804   2.632   3.927  1.3847 -0.3759 -1.3340
   74DOPC  H18S10164   5.848   2.452   3.927 -0.0421  1.4825 -2.1187
   74DOPC  H18T10165   5.892   2.556   4.060  1.3057 -1.1728 -1.5765
   74DOPC   C3310166   4.522   2.651   2.466 -0.1981 -0.1260  0.2096
   74DOPC   H3X10167   4.500   2.673   2.359  1.6183  0.5978 -0.0640
   74DOPC   H3Y10168   4.524   2.751   2.515 -0.7282  0.1532 -0.3250
   74DOPC   C3410169   4.417   2.572   2.537  0.5754 -0.0960  0.2989
   74DOPC   H4X10170   4.412   2.471   2.490  1.2774 -0.9179  1.9229
   74DOPC   H4Y10171   4.312   2.604   2.522  0.4589  0.0785  1.4215
   74DOPC   C3510172   4.430   2.560   2.691  0.6734 -0.3283  0.0047
   74DOPC   H5X10173   4.520   2.503   2.720  0.6210 -0.2959  0.2358
   74DOPC   H5Y10174   4.338   2.505   2.720 -1.1291  1.5492 -1.7716
   74DOPC   C3610175   4.433   2.690   2.768  0.6566 -0.2394  0.0967
   74DOPC   H6X10176   4.519   2.754   2.736  0.8257 -0.8893 -0.8047
   74DOPC   H6Y10177   4.346   2.745   2.727  1.3437  0.3859 -0.5651
   74DOPC   C3710178   4.430   2.676   2.924  0.0724  0.2776  0.5538
   74DOPC   H7X10179   4.391   2.765   2.977  1.1395  0.3292  1.2757
   74DOPC   H7Y10180   4.358   2.593   2.942  3.1126 -2.3012  1.8570
   74DOPC   C3810181   4.564   2.637   2.978  0.5874  0.6330 -0.3430
   74DOPC   H8X10182   4.601   2.546   2.927  4.4255  1.6935  0.2881
   74DOPC   H8Y10183   4.549   2.616   3.086 -0.3625  0.5217 -0.4868
   74DOPC   C3910184   4.674   2.741   2.975 -0.1882  0.4986  0.5753
   74DOPC   H9X10185   4.696   2.770   2.872  0.6472  0.0347  0.6150
   74DOPC  C31010186   4.742   2.798   3.073 -0.5136  0.2051 -0.2360
   74DOPC  H10X10187   4.806   2.884   3.051 -0.4828  0.2033 -0.1547
   74DOPC  C31110188   4.730   2.761   3.222  1.1207  0.6150 -0.2457
   74DOPC  H11X10189   4.691   2.660   3.247 -1.4999  1.4821 -0.5227
   74DOPC  H11Y10190   4.673   2.838   3.278 -0.7986 -1.1896  0.4244
   74DOPC  C31210191   4.874   2.768   3.285 -0.1581  0.1826  0.4737
   74DOPC  H12X10192   4.919   2.867   3.309  1.3113 -0.2947 -0.1615
   74DOPC  H12Y10193   4.950   2.720   3.219 -0.2370  2.1176 -1.1234
   74DOPC  C31310194   4.882   2.687   3.407 -0.6594  0.2440  0.8010
   74DOPC  H13X10195   4.809   2.709   3.488 -1.0819 -0.3076  0.5805
   74DOPC  H13Y10196   4.853   2.583   3.378  3.7570 -0.4778 -2.0770
   74DOPC  C31410197   5.021   2.688   3.460  0.0366 -0.0240 -0.4292
   74DOPC  H14X10198   5.084   2.664   3.371 -1.6463 -1.8072 -1.2180
   74DOPC  H14Y10199   5.060   2.789   3.484 -2.5175  0.2893  3.2202
   74DOPC  C31510200   5.041   2.587   3.573  0.1854 -0.6746 -0.2700
   74DOPC  H15X10201   5.146   2.551   3.576 -0.1400 -1.8136 -1.5846
   74DOPC  H15Y10202   4.990   2.490   3.555  0.3244 -0.8408  0.2033
   74DOPC  C31610203   5.007   2.641   3.711  0.1087 -0.2136 -0.1935
   74DOPC  H16X10204   5.076   2.723   3.739  0.1604  0.2515 -1.5930
   74DOPC  H16Y10205   4.899   2.664   3.719 -0.3168 -2.0919  0.0486
   74DOPC  C31710206   5.024   2.541   3.823  0.0944  0.2715 -1.1139
   74DOPC  H17X10207   4.948   2.463   3.800 -1.3554  1.2949 -0.0044
   74DOPC  H17Y10208   5.124   2.495   3.813  0.1219 -0.3821  1.5422
   74DOPC  C31810209   5.013   2.591   3.963  0.7677 -0.0535 -0.0878
   74DOPC  H18X10210   4.909   2.613   3.997  2.1542  2.5994  2.9110
   74DOPC  H18Y10211   5.041   2.510   4.035  2.2276 -1.8843 -2.5540
   74DOPC  H18Z10212   5.075   2.683   3.967  1.2101 -0.2723 -1.5173
   75DOPC     N10213   5.951   1.544   1.994 -0.0236 -0.1594 -0.1925
   75DOPC   C1210214   5.871   1.455   2.096  0.1439 -0.3503  0.5229
   75DOPC  H12A10215   5.922   1.440   2.190 -1.3032 -0.5513  1.3054
   75DOPC  H12B10216   5.871   1.354   2.058 -3.2061 -0.6481  1.0223
   75DOPC   C1310217   5.868   1.585   1.872 -0.6233 -0.3336 -0.9524
   75DOPC  H13A10218   5.836   1.498   1.817  1.4490 -1.3734 -0.6208
   75DOPC  H13B10219   5.780   1.639   1.902 -0.1184  0.2558 -0.5129
   75DOPC  H13C10220   5.923   1.652   1.809  0.9646 -0.9333 -0.2564
   75DOPC   C1410221   6.066   1.466   1.937 -0.3351  0.2310 -0.4323
   75DOPC  H14A10222   6.048   1.361   1.950  2.1175 -0.8826 -4.4177
   75DOPC  H14B10223   6.073   1.476   1.830  1.6853  0.6313 -0.3121
   75DOPC  H14C10224   6.161   1.493   1.981 -1.3964 -0.5607  2.6049
   75DOPC   C1510225   6.005   1.669   2.055 -0.2734 -0.2504 -0.2919
   75DOPC  H15A10226   6.075   1.655   2.136 -1.1124  0.1264  0.5258
   75DOPC  H15B10227   5.922   1.726   2.096  0.1303 -0.9518  1.5925
   75DOPC  H15C10228   6.050   1.733   1.980 -0.0893 -0.3236 -0.2436
   75DOPC   C1110229   5.725   1.478   2.127 -0.2604 -0.4207  0.1503
   75DOPC  H11A10230   5.674   1.435   2.038 -2.7651 -0.9473  1.7215
   75DOPC  H11B10231   5.704   1.413   2.215 -0.2519 -1.8188 -0.8436
   75DOPC     P10232   5.591   1.693   2.093  0.0035  0.2286 -0.0331
   75DOPC   O1310233   5.584   1.675   1.944  0.1266 -0.7829  0.4035
   75DOPC   O1410234   5.599   1.834   2.141 -0.3534  0.2420 -0.0642
   75DOPC   O1210235   5.712   1.617   2.156  0.2337  0.6407 -0.0715
   75DOPC   O1110236   5.464   1.624   2.159 -0.3100  0.8304 -0.7389
   75DOPC    C110237   5.443   1.619   2.302 -0.4799  0.3003  1.0652
   75DOPC    HA10238   5.385   1.708   2.334 -1.7989  0.3164 -1.1425
   75DOPC    HB10239   5.531   1.625   2.369 -0.3707  2.5004  0.7833
   75DOPC    C210240   5.359   1.498   2.341  0.2200 -0.0544  0.1863
   75DOPC    HS10241   5.258   1.505   2.295  1.1462  3.0459 -1.6975
   75DOPC   O2110242   5.362   1.494   2.482 -0.0061  0.5475  0.2835
   75DOPC   C2110243   5.256   1.558   2.525 -0.0062  0.1700 -0.1976
   75DOPC   O2210244   5.161   1.596   2.458  0.1009  0.5027  0.1513
   75DOPC   C2210245   5.267   1.574   2.680  0.8080  0.2223  0.2360
   75DOPC   H2R10246   5.274   1.685   2.691  0.8776 -0.0008  4.1942
   75DOPC   H2S10247   5.361   1.533   2.721  0.7302 -0.5928 -0.3940
   75DOPC    C310248   5.416   1.357   2.301 -0.0811  0.4795  0.0546
   75DOPC    HX10249   5.508   1.340   2.361 -0.3010  0.9730  0.5416
   75DOPC    HY10250   5.425   1.365   2.191  0.4738  0.9430  0.1297
   75DOPC   O3110251   5.319   1.252   2.340 -0.2253  0.0417 -0.5157
   75DOPC   C3110252   5.212   1.242   2.260 -0.0317 -0.1928 -0.3708
   75DOPC   O3210253   5.173   1.310   2.169 -0.2536  0.5499  0.0210
   75DOPC   C3210254   5.120   1.131   2.313  0.7135 -0.7671 -0.5243
   75DOPC   H2X10255   5.020   1.174   2.290  0.5563 -1.5882 -1.4337
   75DOPC   H2Y10256   5.111   1.042   2.247 -1.7958 -1.5384  0.7156
   75DOPC   C2310257   5.136   1.524   2.747 -0.3377  0.1775 -0.4487
   75DOPC   H3R10258   5.138   1.415   2.725 -0.1845  0.7052 -3.4837
   75DOPC   H3S10259   5.045   1.570   2.702  0.8426 -1.1839 -4.6406
   75DOPC   C2410260   5.137   1.551   2.900 -0.5161  0.5439 -0.0634
   75DOPC   H4R10261   5.235   1.528   2.947 -1.6575 -0.2623  2.0444
   75DOPC   H4S10262   5.067   1.482   2.951  1.2259  0.2276  2.0490
   75DOPC   C2510263   5.106   1.692   2.936 -0.0913 -0.2555  0.3799
   75DOPC   H5R10264   5.017   1.729   2.880 -0.3576 -0.7341  0.4772
   75DOPC   H5S10265   5.197   1.746   2.902 -0.8104 -1.4135 -3.9163
   75DOPC   C2610266   5.079   1.717   3.083  0.1652  0.3819 -1.0062
   75DOPC   H6R10267   5.173   1.692   3.137 -0.1942 -0.7058 -0.8521
   75DOPC   H6S10268   5.002   1.646   3.120  1.3553 -0.0404  0.7713
   75DOPC   C2710269   5.037   1.864   3.126 -0.1491  0.7831  1.0105
   75DOPC   H7R10270   5.110   1.929   3.073  0.7180  0.4623  1.7935
   75DOPC   H7S10271   5.018   1.874   3.235 -0.1633  0.8269  1.0041
   75DOPC   C2810272   4.900   1.921   3.069 -0.3580 -0.0425 -0.3753
   75DOPC   H8R10273   4.910   1.933   2.959  0.3418 -1.4047 -0.4800
   75DOPC   H8S10274   4.876   2.022   3.109  1.5129  0.1992  0.2616
   75DOPC   C2910275   4.796   1.824   3.101 -0.3701  0.6490 -0.3365
   75DOPC   H9R10276   4.811   1.773   3.197 -2.1603  1.3668  0.3749
   75DOPC  C21010277   4.682   1.799   3.038 -0.2936 -0.1442  1.1796
   75DOPC  H10R10278   4.625   1.708   3.063  0.5515 -0.3071  2.5843
   75DOPC  C21110279   4.635   1.860   2.915 -0.6099 -0.4379 -0.0633
   75DOPC  H11R10280   4.657   1.968   2.925  0.4662 -0.7292  1.1027
   75DOPC  H11S10281   4.525   1.846   2.907 -0.8999  0.3642  1.9765
   75DOPC  C21210282   4.691   1.812   2.774 -0.0047 -0.0277 -0.4931
   75DOPC  H12R10283   4.798   1.841   2.765 -0.1571  0.6915 -0.0245
   75DOPC  H12S10284   4.620   1.851   2.698 -1.3071  2.5673  1.8745
   75DOPC  C21310285   4.692   1.658   2.766  0.0917  0.1215 -0.2481
   75DOPC  H13R10286   4.595   1.615   2.799  0.8560 -1.0141  0.5950
   75DOPC  H13S10287   4.773   1.618   2.831 -1.1082 -1.9689  0.0433
   75DOPC  C21410288   4.713   1.607   2.622  0.7930 -0.5723 -0.2826
   75DOPC  H14R10289   4.817   1.624   2.588 -0.0433  2.2022 -1.8436
   75DOPC  H14S10290   4.639   1.663   2.561  1.0296 -0.0146 -0.0678
   75DOPC  C21510291   4.690   1.457   2.605 -0.2203  0.0043  0.4671
   75DOPC  H15R10292   4.698   1.424   2.499  0.9161  1.8013 -0.0415
   75DOPC  H15S10293   4.588   1.429   2.641  0.3529 -2.2476  0.5113
   75DOPC  C21610294   4.784   1.369   2.694  0.6988  0.6702 -0.3905
   75DOPC  H16R10295   4.799   1.413   2.795  1.1132  3.4251 -1.5498
   75DOPC  H16S10296   4.880   1.344   2.645  0.3345  0.3049 -0.9314
   75DOPC  C21710297   4.722   1.232   2.718 -0.2990 -0.0416  0.1315
   75DOPC  H17R10298   4.679   1.200   2.621 -0.2502  1.9335 -0.5848
   75DOPC  H17S10299   4.639   1.229   2.792  0.4601 -1.5916  0.9612
   75DOPC  C21810300   4.826   1.126   2.758  0.0461  0.1720 -0.3380
   75DOPC  H18R10301   4.874   1.164   2.851 -0.2167 -0.1444 -0.0747
   75DOPC  H18S10302   4.897   1.118   2.672  0.4731  2.7343 -0.3056
   75DOPC  H18T10303   4.761   1.038   2.775 -0.2787  0.3910 -0.4319
   75DOPC   C3310304   5.134   1.092   2.466 -0.2526 -0.0341  0.2584
   75DOPC   H3X10305   5.113   1.184   2.525  1.1100  0.4807 -0.0086
   75DOPC   H3Y10306   5.233   1.054   2.498 -0.0470 -0.5259 -0.8973
   75DOPC   C3410307   5.032   0.981   2.511  0.1942 -0.1142  0.7003
   75DOPC   H4X10308   4.925   1.012   2.500  0.1580 -0.0297  1.2530
   75DOPC   H4Y10309   5.054   0.959   2.617  0.6537 -0.2359  0.5820
   75DOPC   C3510310   5.051   0.854   2.425 -0.6093  0.3168  0.3372
   75DOPC   H5X10311   5.156   0.835   2.395 -0.9099 -0.6157 -0.1423
   75DOPC   H5Y10312   4.989   0.861   2.334  0.1852 -0.8178 -0.3051
   75DOPC   C3610313   5.010   0.718   2.496  0.2270 -0.1691 -0.3009
   75DOPC   H6X10314   4.919   0.736   2.556 -1.0803  1.3501 -2.5710
   75DOPC   H6Y10315   4.996   0.645   2.414 -0.6982  0.6062 -0.8644
   75DOPC   C3710316   5.125   0.667   2.589  0.1441 -0.1369 -0.8155
   75DOPC   H7X10317   5.221   0.667   2.534  0.4355 -1.6079 -0.3438
   75DOPC   H7Y10318   5.141   0.734   2.676  0.4318 -0.1536 -0.8546
   75DOPC   C3810319   5.099   0.520   2.627  0.5894 -0.2876  0.1425
   75DOPC   H8X10320   5.062   0.472   2.534  2.3360 -2.6409  0.5456
   75DOPC   H8Y10321   5.015   0.497   2.697  1.4292 -0.5981  1.0795
   75DOPC   C3910322   5.216   0.443   2.667 -0.0972  0.6432 -0.0643
   75DOPC   H9X10323   5.280   0.411   2.584  1.0941 -0.5117  1.2361
   75DOPC  C31010324   5.247   0.403   2.791 -0.5531  0.2363 -0.5676
   75DOPC  H10X10325   5.334   0.337   2.805  0.5230  1.8034  0.3782
   75DOPC  C31110326   5.161   0.400   2.912 -0.6373  0.0102 -0.3988
   75DOPC  H11X10327   5.189   0.312   2.974 -0.8452  0.1528 -0.0996
   75DOPC  H11Y10328   5.055   0.395   2.879 -0.6420 -1.0333 -0.2473
   75DOPC  C31210329   5.174   0.534   2.992  0.3703 -0.0964  0.5227
   75DOPC  H12X10330   5.146   0.622   2.931  3.1146  0.2826 -0.3377
   75DOPC  H12Y10331   5.274   0.547   3.039  1.2605 -2.8684 -0.3825
   75DOPC  C31310332   5.079   0.535   3.118  0.0779 -0.1343  0.0971
   75DOPC  H13X10333   4.974   0.513   3.089  0.2675 -0.5771 -0.2653
   75DOPC  H13Y10334   5.127   0.459   3.183  1.0561 -0.0242 -0.4685
   75DOPC  C31410335   5.086   0.670   3.199 -0.4734  0.4100 -0.3094
   75DOPC  H14X10336   5.195   0.683   3.215 -0.2814 -0.7535 -0.5898
   75DOPC  H14Y10337   5.053   0.765   3.151  2.8178  1.2684 -1.1268
   75DOPC  C31510338   5.018   0.648   3.337  0.2839  0.5256  0.3884
   75DOPC  H15X10339   5.069   0.565   3.390  0.2160  0.6707  0.6792
   75DOPC  H15Y10340   4.919   0.601   3.321  0.3906 -0.0545  1.3393
   75DOPC  C31610341   5.015   0.769   3.420 -0.1843  0.0843 -0.3259
   75DOPC  H16X10342   5.116   0.806   3.447 -1.4450  2.3761  1.6063
   75DOPC  H16Y10343   4.964   0.851   3.365  0.8088  0.6668 -0.4107
   75DOPC  C31710344   4.936   0.749   3.549 -0.3746 -0.3696  0.6617
   75DOPC  H17X10345   4.904   0.848   3.588  0.2079 -0.4203  1.3082
   75DOPC  H17Y10346   4.853   0.676   3.543  0.0559 -0.7479 -1.1395
   75DOPC  C31810347   5.019   0.694   3.661  0.0199 -0.3478 -0.5524
   75DOPC  H18X10348   4.961   0.686   3.755  0.1317  0.9035 -0.3485
   75DOPC  H18Y10349   5.064   0.595   3.642 -2.9881 -1.5780 -1.8507
   75DOPC  H18Z10350   5.106   0.758   3.687 -0.5662  0.6625 -1.0211
   76DOPC     N10351   3.248   3.453   1.953  0.2785  0.0135  0.1828
   76DOPC   C1210352   3.309   3.519   2.075 -0.4757 -0.6317 -0.3738
   76DOPC  H12A10353   3.391   3.460   2.112  0.2888 -0.3894 -1.6273
   76DOPC  H12B10354   3.240   3.525   2.158  0.1284  2.3832  0.0218
   76DOPC   C1310355   3.351   3.437   1.844  0.6761  0.5062  0.4349
   76DOPC  H13A10356   3.434   3.377   1.879 -0.5350 -1.5456 -0.0624
   76DOPC  H13B10357   3.299   3.396   1.759  1.2938  0.2347  0.1820
   76DOPC  H13C10358   3.398   3.531   1.819 -2.6323  2.2537  0.2315
   76DOPC   C1410359   3.141   3.542   1.887 -0.0415 -0.0104  0.4175
   76DOPC  H14A10360   3.062   3.573   1.954 -1.0500  0.2255 -0.8541
   76DOPC  H14B10361   3.184   3.634   1.852 -1.3934  0.3888 -0.2596
   76DOPC  H14C10362   3.102   3.493   1.799 -0.7916 -0.3799  0.9383
   76DOPC   C1510363   3.190   3.316   1.977  0.3659  0.3764  0.1495
   76DOPC  H15A10364   3.150   3.278   1.884  0.6133 -0.6113  0.4346
   76DOPC  H15B10365   3.115   3.314   2.054  1.1852  0.2559  0.9638
   76DOPC  H15C10366   3.271   3.251   2.007 -1.0871 -1.3522  0.5559
   76DOPC   C1110367   3.371   3.667   2.058  0.2153  0.9948  0.1375
   76DOPC  H11A10368   3.427   3.689   2.152 -1.1116  2.8758  0.5323
   76DOPC  H11B10369   3.439   3.675   1.970  1.3079 -0.4209  0.8017
   76DOPC     P10370   3.194   3.816   2.173  0.1957 -0.1397  0.6408
   76DOPC   O1310371   3.163   3.698   2.262  1.0022 -0.4328 -0.1902
   76DOPC   O1410372   3.076   3.898   2.120  0.2549  0.0692 -0.0493
   76DOPC   O1210373   3.268   3.760   2.051  0.1924  0.4545 -0.6485
   76DOPC   O1110374   3.311   3.900   2.236 -0.0885 -0.0201  1.0188
   76DOPC    C110375   3.298   4.012   2.326  0.5197  0.6722  0.2941
   76DOPC    HA10376   3.197   4.058   2.320  0.3098  0.2771  0.7683
   76DOPC    HB10377   3.378   4.089   2.315  0.9694  0.4176  1.6517
   76DOPC    C210378   3.326   3.951   2.468  0.0194 -0.3953  0.0166
   76DOPC    HS10379   3.252   3.875   2.501 -0.3351  0.9845  2.7734
   76DOPC   O2110380   3.318   4.054   2.572  0.2128  0.4150  0.0129
   76DOPC   C2110381   3.203   4.099   2.600  0.1551  0.2433  0.8607
   76DOPC   O2210382   3.101   4.068   2.542 -0.2156  0.5829  0.3041
   76DOPC   C2210383   3.207   4.193   2.726 -0.0757 -0.7282  0.4620
   76DOPC   H2R10384   3.299   4.256   2.724 -0.3164 -0.3495  0.9680
   76DOPC   H2S10385   3.210   4.122   2.811  0.4971  1.7824  2.6606
   76DOPC    C310386   3.471   3.889   2.472  0.2070  0.0129 -0.0663
   76DOPC    HX10387   3.536   3.968   2.430 -0.0704  0.1299 -0.2748
   76DOPC    HY10388   3.474   3.809   2.395  1.2924 -0.3747  0.3584
   76DOPC   O3110389   3.519   3.847   2.605  0.1891  0.7101  0.2628
   76DOPC   C3110390   3.458   3.746   2.671 -0.6286  0.0977  1.0901
   76DOPC   O3210391   3.348   3.701   2.643  0.3123 -0.0919 -0.3571
   76DOPC   C3210392   3.543   3.712   2.794  0.0259  0.0145 -0.1141
   76DOPC   H2X10393   3.634   3.657   2.761  1.3897  0.7856  2.1281
   76DOPC   H2Y10394   3.567   3.801   2.855 -1.0103  0.5725 -0.4939
   76DOPC   C2310395   3.082   4.286   2.717 -0.0950  0.3164 -0.1164
   76DOPC   H3R10396   2.986   4.229   2.721 -0.5958  1.2162  2.1717
   76DOPC   H3S10397   3.084   4.343   2.622  2.4410  1.8634  0.7893
   76DOPC   C2410398   3.072   4.386   2.833 -0.6321 -0.8308  0.2039
   76DOPC   H4R10399   2.970   4.429   2.840 -0.2944 -0.3032  3.3430
   76DOPC   H4S10400   3.142   4.471   2.821 -1.8925  0.4107  1.3599
   76DOPC   C2510401   3.101   4.330   2.976 -0.1571  0.2599  0.7034
   76DOPC   H5R10402   3.207   4.298   2.987 -0.6187 -1.7242 -0.1760
   76DOPC   H5S10403   3.053   4.230   2.974 -0.2965  0.3226 -1.7966
   76DOPC   C2610404   3.052   4.431   3.080  0.3483 -0.0698 -0.3345
   76DOPC   H6R10405   2.976   4.502   3.041  0.3951  0.4034  0.4197
   76DOPC   H6S10406   3.137   4.500   3.101 -0.5383  1.1755 -0.7063
   76DOPC   C2710407   3.000   4.364   3.213 -0.6214  0.4006  0.0191
   76DOPC   H7R10408   3.068   4.286   3.253  1.0270  1.8387  0.1175
   76DOPC   H7S10409   2.905   4.309   3.190 -1.0442  2.1824 -3.1462
   76DOPC   C2810410   2.963   4.460   3.326 -0.8955 -0.0812  0.5164
   76DOPC   H8R10411   3.038   4.541   3.344  1.3188 -1.5211 -1.6552
   76DOPC   H8S10412   2.967   4.393   3.414 -2.2498 -0.0554  0.6121
   76DOPC   C2910413   2.818   4.504   3.328  0.0700 -0.2160 -0.1797
   76DOPC   H9R10414   2.777   4.535   3.230 -0.1407  0.2265  0.0421
   76DOPC  C21010415   2.754   4.540   3.437 -0.0679  0.1538 -0.2894
   76DOPC  H10R10416   2.650   4.572   3.420 -0.0859  0.0120 -0.4483
   76DOPC  C21110417   2.800   4.531   3.581  0.1455 -0.3258  0.0143
   76DOPC  H11R10418   2.910   4.522   3.585  0.1609 -0.2033 -0.1325
   76DOPC  H11S10419   2.753   4.444   3.632 -0.6719 -0.1485 -0.4087
   76DOPC  C21210420   2.758   4.656   3.663  0.1541 -0.2998 -0.1269
   76DOPC  H12R10421   2.655   4.696   3.652  0.2307 -0.2614 -0.7692
   76DOPC  H12S10422   2.823   4.741   3.633 -1.4634  1.4795  1.1488
   76DOPC  C21310423   2.786   4.648   3.814  0.3365  0.0500 -0.0392
   76DOPC  H13R10424   2.767   4.748   3.860 -0.2555  0.0565 -0.2821
   76DOPC  H13S10425   2.890   4.619   3.840 -0.2280 -1.7443  0.4104
   76DOPC  C21410426   2.676   4.566   3.877 -0.0140  0.0257 -0.5063
   76DOPC  H14R10427   2.674   4.460   3.844 -1.4483  0.2834 -1.3180
   76DOPC  H14S10428   2.585   4.614   3.835 -0.8920 -0.5790  0.6527
   76DOPC  C21510429   2.660   4.575   4.031 -0.4368  0.5064 -0.3501
   76DOPC  H15R10430   2.739   4.635   4.080  0.0380  0.5609 -1.1619
   76DOPC  H15S10431   2.648   4.471   4.070 -3.0348  0.8825  0.0816
   76DOPC  C21610432   2.532   4.642   4.069 -0.4014 -0.5022  0.2809
   76DOPC  H16R10433   2.505   4.647   4.177 -0.0966  2.5591  0.3022
   76DOPC  H16S10434   2.455   4.587   4.011 -3.3666  2.0799  1.5133
   76DOPC  C21710435   2.513   4.791   4.013  0.7574  0.7084 -0.4125
   76DOPC  H17R10436   2.451   4.803   3.921 -0.0946  1.6998  0.2705
   76DOPC  H17S10437   2.615   4.822   3.981  0.1609  2.3523 -0.8558
   76DOPC  C21810438   2.462   4.893   4.109  0.0875  0.2906 -0.2954
   76DOPC  H18R10439   2.355   4.869   4.129 -0.2095  0.6581 -1.3601
   76DOPC  H18S10440   2.455   4.992   4.059 -2.1590  0.0979 -0.5048
   76DOPC  H18T10441   2.522   4.892   4.202 -0.3222  0.9526 -0.0239
   76DOPC   C3310442   3.471   3.604   2.874 -0.1262  0.2189 -0.4659
   76DOPC   H3X10443   3.438   3.519   2.811 -1.3627  0.0188  0.4271
   76DOPC   H3Y10444   3.376   3.644   2.915 -0.0237  0.0261 -0.0373
   76DOPC   C3410445   3.536   3.554   3.007  0.4207 -0.4167  0.1258
   76DOPC   H4X10446   3.575   3.640   3.065 -2.0033 -0.9880  2.8011
   76DOPC   H4Y10447   3.631   3.501   2.986  1.2883  1.4712 -1.0299
   76DOPC   C3510448   3.445   3.479   3.102  0.3019  0.0536 -0.5220
   76DOPC   H5X10449   3.382   3.419   3.033 -0.4849 -1.3690  1.3576
   76DOPC   H5Y10450   3.381   3.547   3.162  1.0086  0.7524 -0.5355
   76DOPC   C3610451   3.525   3.388   3.193  0.5845  0.2958 -0.3830
   76DOPC   H6X10452   3.574   3.314   3.127  0.2875 -0.3976  0.1623
   76DOPC   H6Y10453   3.602   3.454   3.239  1.6850  0.0388 -1.7873
   76DOPC   C3710454   3.418   3.318   3.279 -0.4548  0.5439  0.3900
   76DOPC   H7X10455   3.377   3.386   3.356  1.1753  0.3037  1.5247
   76DOPC   H7Y10456   3.336   3.277   3.216  1.5648 -2.2662 -0.6116
   76DOPC   C3810457   3.482   3.202   3.362  0.1358  0.2245  0.5728
   76DOPC   H8X10458   3.580   3.231   3.406  0.8534 -0.5008 -0.4590
   76DOPC   H8Y10459   3.498   3.124   3.284 -1.2476  1.5028 -1.0667
   76DOPC   C3910460   3.397   3.149   3.472 -0.0024 -0.3340  0.3735
   76DOPC   H9X10461   3.299   3.113   3.437 -0.1069  2.6185 -2.8678
   76DOPC  C31010462   3.425   3.135   3.604  0.8281 -0.1927  0.7256
   76DOPC  H10X10463   3.343   3.078   3.649  1.0446  0.6856  2.3049
   76DOPC  C31110464   3.552   3.167   3.681 -0.1072  0.2722  0.3128
   76DOPC  H11X10465   3.635   3.178   3.609  0.1803 -2.9740  0.0263
   76DOPC  H11Y10466   3.582   3.076   3.736  1.1515 -0.1732 -1.0538
   76DOPC  C31210467   3.537   3.280   3.781 -0.2658 -0.1687  0.2639
   76DOPC  H12X10468   3.455   3.271   3.854 -0.7287 -2.0667 -0.4554
   76DOPC  H12Y10469   3.507   3.372   3.725 -1.8290  1.7100  3.8469
   76DOPC  C31310470   3.674   3.317   3.850 -0.1060  0.4951 -0.2104
   76DOPC  H13X10471   3.723   3.226   3.888  0.3889  0.3488 -1.1609
   76DOPC  H13Y10472   3.754   3.348   3.779  1.3259 -2.0398  0.1768
   76DOPC  C31410473   3.652   3.414   3.966 -0.4429 -0.0693  0.1705
   76DOPC  H14X10474   3.648   3.518   3.927 -0.8804  0.7326  2.2525
   76DOPC  H14Y10475   3.556   3.397   4.020 -0.6181 -0.8087 -0.3589
   76DOPC  C31510476   3.752   3.405   4.088 -0.2808  0.1996  0.2481
   76DOPC  H15X10477   3.711   3.478   4.161  2.8422 -0.4980  2.9281
   76DOPC  H15Y10478   3.853   3.441   4.058  0.0026 -1.1244 -0.4732
   76DOPC  C31610479   3.758   3.264   4.166  0.6654  0.1213  0.4021
   76DOPC  H16X10480   3.652   3.234   4.163 -0.0312  2.3307  0.9714
   76DOPC  H16Y10481   3.812   3.198   4.095  1.1863 -0.6680  1.5084
   76DOPC  C31710482   3.804   3.260   4.311 -0.8069 -0.4090 -0.3530
   76DOPC  H17X10483   3.907   3.302   4.300 -0.9384 -0.1765 -0.6872
   76DOPC  H17Y10484   3.742   3.326   4.376  0.5093  1.0377 -0.4887
   76DOPC  C31810485   3.817   3.123   4.377  0.2822  0.1852  0.1179
   76DOPC  H18X10486   3.858   3.139   4.479 -1.1785 -0.0109  0.7716
   76DOPC  H18Y10487   3.723   3.064   4.386  1.0640 -1.4589 -1.7267
   76DOPC  H18Z10488   3.885   3.071   4.307 -0.9847 -0.1250 -0.9282
   77DOPC     N10489   3.701   2.529   2.534  0.4073  0.1712  0.0743
   77DOPC   C1210490   3.757   2.520   2.395  0.0624  0.4206 -0.4009
   77DOPC  H12A10491   3.859   2.556   2.400 -0.4242  1.6838  2.6608
   77DOPC  H12B10492   3.709   2.587   2.325  1.9684  2.2559 -0.0930
   77DOPC   C1310493   3.767   2.434   2.622  0.1466  0.3476 -0.2880
   77DOPC  H13A10494   3.791   2.343   2.569 -3.0912 -1.8656  1.6802
   77DOPC  H13B10495   3.861   2.467   2.663  0.4687  0.9093 -1.4146
   77DOPC  H13C10496   3.701   2.404   2.702  0.0597  1.9678  0.2891
   77DOPC   C1410497   3.554   2.493   2.531 -0.3071  0.5672  0.0406
   77DOPC  H14A10498   3.536   2.398   2.483  0.9087  1.1990 -1.7444
   77DOPC  H14B10499   3.507   2.488   2.629 -1.3222 -1.3357 -0.4894
   77DOPC  H14C10500   3.500   2.568   2.476 -0.4036  0.3669 -0.1358
   77DOPC   C1510501   3.712   2.670   2.583 -0.0581  0.2293 -0.1299
   77DOPC  H15A10502   3.666   2.742   2.517 -1.0361  1.5648  1.9373
   77DOPC  H15B10503   3.816   2.699   2.585 -0.6683  2.7246 -1.4492
   77DOPC  H15C10504   3.663   2.676   2.679 -0.7143 -2.0471 -0.2512
   77DOPC   C1110505   3.766   2.377   2.349  0.8357  0.0425 -0.0050
   77DOPC  H11A10506   3.679   2.319   2.387  2.3867 -2.2421  0.2986
   77DOPC  H11B10507   3.749   2.372   2.239 -1.4329 -1.4131  0.3319
   77DOPC     P10508   4.009   2.326   2.281  0.1591 -0.2837  0.0962
   77DOPC   O1310509   4.067   2.460   2.300  0.5036 -0.0501  0.0489
   77DOPC   O1410510   3.975   2.290   2.145  0.1499 -0.0280  0.0758
   77DOPC   O1210511   3.889   2.316   2.382 -0.3791 -0.5177  0.5130
   77DOPC   O1110512   4.105   2.216   2.337  0.2330 -0.0334 -0.1861
   77DOPC    C110513   4.046   2.113   2.421  0.6683 -0.0495 -0.4700
   77DOPC    HA10514   4.101   2.018   2.402  2.5164  1.2384 -1.9641
   77DOPC    HB10515   3.938   2.089   2.405  0.2298  0.0153  1.9951
   77DOPC    C210516   4.062   2.145   2.580  0.1129  0.4740  0.5761
   77DOPC    HS10517   4.034   2.252   2.589 -2.5902 -0.2097  1.3708
   77DOPC   O2110518   4.199   2.117   2.616  0.6016  0.1263 -0.4566
   77DOPC   C2110519   4.255   2.214   2.702  0.3490 -0.0399 -0.0671
   77DOPC   O2210520   4.189   2.301   2.761 -0.2153 -0.1482  0.8192
   77DOPC   C2210521   4.404   2.213   2.697  0.0429 -0.2132  0.1069
   77DOPC   H2R10522   4.435   2.294   2.628 -0.1165  1.2029  1.6422
   77DOPC   H2S10523   4.450   2.117   2.666 -0.3681 -0.8421  1.3843
   77DOPC    C310524   3.963   2.055   2.661  0.3311 -0.2754  0.2223
   77DOPC    HX10525   3.973   1.950   2.625 -0.3854 -0.5457  0.7809
   77DOPC    HY10526   3.861   2.089   2.631  0.3505  0.8308  1.3234
   77DOPC   O3110527   3.999   2.065   2.799  0.5378 -0.2617  0.2208
   77DOPC   C3110528   3.931   2.155   2.876  0.1423  0.7840  0.3605
   77DOPC   O3210529   3.825   2.203   2.842  0.0416 -0.2844 -0.4290
   77DOPC   C3210530   3.993   2.168   3.023 -0.7438  0.2715 -0.0149
   77DOPC   H2X10531   4.016   2.066   3.058 -0.6701  0.8235  1.6363
   77DOPC   H2Y10532   4.091   2.219   3.022 -0.5621 -0.0333  0.9991
   77DOPC   C2310533   4.465   2.262   2.830  0.1884 -0.7649 -0.5379
   77DOPC   H3R10534   4.429   2.361   2.865  0.9004  0.2492 -2.5299
   77DOPC   H3S10535   4.573   2.279   2.810  0.1982  0.8713  0.7400
   77DOPC   C2410536   4.443   2.156   2.939  0.1971  0.0234 -0.5975
   77DOPC   H4R10537   4.477   2.058   2.899  2.8431  0.0519  1.3090
   77DOPC   H4S10538   4.336   2.133   2.962  0.1657  1.0949  0.4369
   77DOPC   C2510539   4.528   2.190   3.061 -0.6386  0.0431  0.0969
   77DOPC   H5R10540   4.617   2.242   3.020 -0.6640 -1.2649 -1.7552
   77DOPC   H5S10541   4.564   2.104   3.122 -1.5435  1.7418  3.2433
   77DOPC   C2610542   4.456   2.277   3.166  0.3353 -0.2941 -0.8819
   77DOPC   H6R10543   4.377   2.208   3.203  1.7952 -2.0314 -0.8777
   77DOPC   H6S10544   4.422   2.366   3.109 -0.1396  0.5365  0.6326
   77DOPC   C2710545   4.541   2.332   3.285 -0.4376  0.4882 -0.5191
   77DOPC   H7R10546   4.477   2.377   3.363 -1.4816 -0.3278 -0.8773
   77DOPC   H7S10547   4.621   2.402   3.251 -0.3925  0.2787 -0.8557
   77DOPC   C2810548   4.616   2.225   3.371  0.0933 -0.5109 -0.0558
   77DOPC   H8R10549   4.687   2.167   3.309  1.6996 -0.3625  1.5712
   77DOPC   H8S10550   4.544   2.158   3.423 -2.5858  2.1797  0.0376
   77DOPC   C2910551   4.698   2.291   3.487 -0.0382 -0.4816 -0.0257
   77DOPC   H9R10552   4.735   2.393   3.469  0.5444 -0.0368  3.1513
   77DOPC  C21010553   4.731   2.236   3.608  0.2054  0.3084  0.2393
   77DOPC  H10R10554   4.778   2.299   3.686 -0.9113  1.4071  0.0641
   77DOPC  C21110555   4.717   2.090   3.636  0.7285  0.4981 -0.3600
   77DOPC  H11R10556   4.697   2.030   3.544  1.4549 -0.6052  0.1812
   77DOPC  H11S10557   4.640   2.079   3.716  0.3672  1.4586 -0.5635
   77DOPC  C21210558   4.848   2.026   3.693 -0.8691  0.9853  0.3281
   77DOPC  H12R10559   4.930   2.066   3.630 -0.2246 -1.3563 -0.4412
   77DOPC  H12S10560   4.844   1.916   3.676 -0.7413  0.8982  0.8334
   77DOPC  C21310561   4.867   2.051   3.844 -0.0593  0.1953 -0.1776
   77DOPC  H13R10562   4.780   2.004   3.895  0.2822 -0.5448 -0.2739
   77DOPC  H13S10563   4.861   2.162   3.849 -1.4041  0.1758 -0.6808
   77DOPC  C21410564   4.997   2.009   3.911  0.0213  0.0103  0.0283
   77DOPC  H14R10565   5.019   2.075   3.999 -0.5896  0.5686 -0.2280
   77DOPC  H14S10566   5.076   2.029   3.836  1.4683 -1.4500  1.0939
   77DOPC  C21510567   5.014   1.861   3.939  0.8770 -0.3338  0.6356
   77DOPC  H15R10568   4.995   1.811   3.842 -2.8438  3.0952 -0.6518
   77DOPC  H15S10569   4.932   1.823   4.004  2.1367  0.8221  3.0548
   77DOPC  C21610570   5.156   1.825   3.989  0.5929 -0.5343  0.6824
   77DOPC  H16R10571   5.161   1.840   4.099  1.7327 -1.2701  0.7402
   77DOPC  H16S10572   5.238   1.879   3.937  1.8076 -2.1214  0.8921
   77DOPC  C21710573   5.181   1.670   3.975  0.4106 -0.2828  0.1115
   77DOPC  H17R10574   5.286   1.646   4.002  0.3255  2.4621  3.5362
   77DOPC  H17S10575   5.158   1.647   3.868  1.5543 -1.0842  0.0255
   77DOPC  C21810576   5.099   1.572   4.064 -0.0307  0.3527  0.9668
   77DOPC  H18R10577   5.127   1.465   4.049 -1.5465 -0.0563  0.9335
   77DOPC  H18S10578   4.994   1.579   4.031  0.5798  2.1557 -0.7596
   77DOPC  H18T10579   5.109   1.607   4.169 -0.3347 -2.4773  2.0357
   77DOPC   C3310580   3.893   2.235   3.116  0.3157 -0.0579 -0.1681
   77DOPC   H3X10581   3.790   2.193   3.110 -0.4478  1.6077  0.5891
   77DOPC   H3Y10582   3.879   2.341   3.087 -3.1260 -0.3262  0.1146
   77DOPC   C3410583   3.930   2.221   3.263  0.1995  0.1802 -0.4095
   77DOPC   H4X10584   4.016   2.151   3.260 -1.0559 -1.4414 -0.2049
   77DOPC   H4Y10585   3.841   2.183   3.317  0.5457 -0.4347 -0.2542
   77DOPC   C3510586   3.979   2.353   3.325 -0.2059  0.8570 -0.6578
   77DOPC   H5X10587   3.914   2.430   3.280 -0.5551  0.6411 -0.5275
   77DOPC   H5Y10588   4.082   2.364   3.285  0.2889 -1.7173 -0.2677
   77DOPC   C3610589   3.985   2.365   3.481  0.3661  0.1077  0.1926
   77DOPC   H6X10590   4.006   2.473   3.497  0.2984 -0.0165  1.1905
   77DOPC   H6Y10591   3.886   2.344   3.528 -0.2577  2.3112 -0.0198
   77DOPC   C3710592   4.099   2.274   3.525  0.3033 -0.4924 -0.7122
   77DOPC   H7X10593   4.067   2.176   3.485 -0.8185 -0.0787 -0.8605
   77DOPC   H7Y10594   4.195   2.306   3.480 -1.0200  0.6109 -2.9024
   77DOPC   C3810595   4.102   2.255   3.676  0.3755 -0.2392  0.3508
   77DOPC   H8X10596   3.998   2.255   3.714 -0.6991  0.8295 -2.3566
   77DOPC   H8Y10597   4.136   2.348   3.727 -0.7158  1.1360 -1.3505
   77DOPC   C3910598   4.181   2.133   3.714  0.0203 -0.0114  0.0540
   77DOPC   H9X10599   4.148   2.039   3.668 -1.3973  0.7420 -0.5165
   77DOPC  C31010600   4.292   2.128   3.787 -0.0607  0.0393  0.4566
   77DOPC  H10X10601   4.349   2.040   3.822 -1.4109 -0.5749  1.1879
   77DOPC  C31110602   4.356   2.255   3.847 -0.1412 -0.0960 -0.4584
   77DOPC  H11X10603   4.285   2.312   3.910 -0.0129  0.4989 -0.8425
   77DOPC  H11Y10604   4.372   2.324   3.762 -2.0413  1.5097  0.4126
   77DOPC  C31210605   4.487   2.241   3.924 -0.0346 -0.2927 -0.7474
   77DOPC  H12X10606   4.567   2.247   3.848  0.0228 -1.0593 -0.7534
   77DOPC  H12Y10607   4.495   2.142   3.974 -0.5719 -1.0032 -2.0177
   77DOPC  C31310608   4.515   2.357   4.030  0.6251  0.5612  0.0374
   77DOPC  H13X10609   4.478   2.437   3.962 -2.2180 -0.9587 -0.3644
   77DOPC  H13Y10610   4.441   2.357   4.112  1.7864 -0.7631  1.1485
   77DOPC  C31410611   4.651   2.363   4.082 -0.4533  0.4639 -0.2532
   77DOPC  H14X10612   4.669   2.267   4.136  1.2455  0.4389 -0.8129
   77DOPC  H14Y10613   4.719   2.369   3.995 -0.0815  0.6350  0.0460
   77DOPC  C31510614   4.691   2.478   4.165 -0.3468  0.0673  0.2151
   77DOPC  H15X10615   4.701   2.560   4.090  1.3636 -0.2710  0.0312
   77DOPC  H15Y10616   4.790   2.456   4.211  1.1188  0.5751 -2.4683
   77DOPC  C31610617   4.591   2.509   4.279 -0.0026  0.1761  0.4904
   77DOPC  H16X10618   4.628   2.596   4.338 -0.0014  0.6483 -0.1959
   77DOPC  H16Y10619   4.495   2.546   4.238  0.1213 -0.5428 -0.4950
   77DOPC  C31710620   4.568   2.394   4.383 -0.0296 -0.2125 -0.0330
   77DOPC  H17X10621   4.551   2.303   4.321  0.3336 -1.2865  1.3998
   77DOPC  H17Y10622   4.654   2.374   4.449 -0.1025 -0.9352 -0.1455
   77DOPC  C31810623   4.440   2.418   4.464  0.2213 -0.3823 -0.5908
   77DOPC  H18X10624   4.350   2.399   4.402  0.9473 -0.9607 -1.4935
   77DOPC  H18Y10625   4.440   2.354   4.555  0.8424  3.3321  2.3314
   77DOPC  H18Z10626   4.445   2.526   4.493  0.9404 -0.2052 -1.3393
   78DOPC     N10627   5.372   4.049   1.502 -0.5661  0.3919  0.1642
   78DOPC   C1210628   5.392   4.104   1.643 -0.2868  0.2338 -0.3559
   78DOPC  H12A10629   5.460   4.189   1.639 -0.3561  0.3562  0.7564
   78DOPC  H12B10630   5.441   4.026   1.700 -1.0051 -0.6382 -0.9102
   78DOPC   C1310631   5.500   3.990   1.454 -0.6264  0.3334 -0.0976
   78DOPC  H13A10632   5.501   3.944   1.356  0.1097  0.3878 -0.1187
   78DOPC  H13B10633   5.578   4.064   1.462 -0.6909  0.5135 -0.9828
   78DOPC  H13C10634   5.536   3.908   1.514 -0.5895 -1.1503 -2.0493
   78DOPC   C1410635   5.319   4.153   1.410 -0.4804 -0.2549 -0.4592
   78DOPC  H14A10636   5.236   4.205   1.455 -0.9168  0.0228 -1.5373
   78DOPC  H14B10637   5.398   4.217   1.374 -0.4225  1.3168  2.2234
   78DOPC  H14C10638   5.269   4.105   1.327 -0.7244 -0.8933  0.0475
   78DOPC   C1510639   5.268   3.935   1.499  0.4150 -0.5236  0.5744
   78DOPC  H15A10640   5.271   3.879   1.407  0.3667  1.7998 -0.9181
   78DOPC  H15B10641   5.166   3.963   1.524  0.8858 -0.2386  2.3588
   78DOPC  H15C10642   5.291   3.869   1.581 -0.0263  0.0632  1.1875
   78DOPC   C1110643   5.268   4.153   1.719 -0.5186  0.1716 -0.7422
   78DOPC  H11A10644   5.195   4.069   1.725  0.7089 -0.8991 -0.4382
   78DOPC  H11B10645   5.292   4.179   1.824  0.7858 -2.1153 -0.4141
   78DOPC     P10646   5.043   4.294   1.667 -0.0725 -0.1137  0.1063
   78DOPC   O1310647   4.962   4.175   1.632  0.6700  0.5063 -0.7708
   78DOPC   O1410648   5.022   4.419   1.587  0.5300 -0.1834 -0.9301
   78DOPC   O1210649   5.201   4.259   1.654  0.4093 -0.2336 -0.1498
   78DOPC   O1110650   5.053   4.325   1.823 -0.1467  0.2105  0.4317
   78DOPC    C110651   5.002   4.227   1.921  0.2421 -0.5122 -0.1647
   78DOPC    HA10652   5.074   4.207   2.003  1.0651 -0.1012 -0.7793
   78DOPC    HB10653   4.976   4.130   1.874  3.0801 -1.6210  0.3797
   78DOPC    C210654   4.863   4.270   1.976 -0.4808 -0.1238 -0.0623
   78DOPC    HS10655   4.808   4.303   1.885  1.3423  1.8120 -0.5432
   78DOPC   O2110656   4.879   4.384   2.065  0.3852  0.0846 -0.0177
   78DOPC   C2110657   4.764   4.429   2.111 -0.2448 -0.7456  0.2619
   78DOPC   O2210658   4.653   4.394   2.082  0.0507  0.1953  0.3269
   78DOPC   C2210659   4.795   4.536   2.214 -0.1054  0.0302 -0.3975
   78DOPC   H2R10660   4.801   4.635   2.164 -0.8342  0.3633  0.1529
   78DOPC   H2S10661   4.897   4.529   2.256 -0.7011 -2.3482  0.8265
   78DOPC    C310662   4.780   4.146   2.035  0.0145  0.3612  0.2310
   78DOPC    HX10663   4.774   4.069   1.955 -2.1190  1.3871 -0.6570
   78DOPC    HY10664   4.675   4.173   2.057  0.0529 -0.5431  1.6695
   78DOPC   O3110665   4.837   4.106   2.157  0.2470 -0.2825  0.4161
   78DOPC   C3110666   4.880   3.982   2.162 -0.4885 -0.5358  0.2742
   78DOPC   O3210667   4.903   3.907   2.068  0.2702 -0.3583  0.0059
   78DOPC   C3210668   4.900   3.943   2.320  0.0515  0.3764 -0.1149
   78DOPC   H2X10669   4.809   3.881   2.329 -0.0069 -0.1687 -3.4231
   78DOPC   H2Y10670   4.996   3.888   2.312  2.7028  4.4278  0.3329
   78DOPC   C2310671   4.694   4.539   2.339 -0.7437 -0.5156  0.6672
   78DOPC   H3R10672   4.651   4.437   2.349 -0.0015 -1.4252 -3.3795
   78DOPC   H3S10673   4.609   4.609   2.326  0.0793  0.6765  1.4890
   78DOPC   C2410674   4.756   4.579   2.465 -0.6266  0.5936 -0.9743
   78DOPC   H4R10675   4.782   4.687   2.465  2.5558 -0.0573  0.3605
   78DOPC   H4S10676   4.851   4.522   2.470 -1.0893 -0.1907 -0.8916
   78DOPC   C2510677   4.663   4.545   2.582  0.4388 -0.1333 -0.1257
   78DOPC   H5R10678   4.648   4.435   2.590  0.1942 -0.0438  0.7681
   78DOPC   H5S10679   4.560   4.587   2.574  0.7813  1.1392  1.6120
   78DOPC   C2610680   4.711   4.601   2.716  0.5525 -0.4564 -0.1923
   78DOPC   H6R10681   4.721   4.711   2.705 -2.6159 -0.1345 -0.8958
   78DOPC   H6S10682   4.808   4.556   2.747  0.9566  0.7740  0.3993
   78DOPC   C2710683   4.608   4.580   2.835 -0.1730  0.6037 -0.0472
   78DOPC   H7R10684   4.593   4.471   2.848 -1.2037  0.2836 -3.0718
   78DOPC   H7S10685   4.520   4.642   2.809 -0.7880 -0.3497 -0.2716
   78DOPC   C2810686   4.647   4.649   2.968 -0.4362 -0.9122  0.0349
   78DOPC   H8R10687   4.680   4.752   2.942  0.4969 -0.8051  1.4634
   78DOPC   H8S10688   4.740   4.603   3.010 -0.5671 -1.7526 -0.5784
   78DOPC   C2910689   4.545   4.647   3.083 -0.2231 -0.0704  0.0657
   78DOPC   H9R10690   4.480   4.560   3.069  1.1271 -1.2883  1.1474
   78DOPC  C21010691   4.531   4.728   3.183 -0.8255 -0.0289  0.6325
   78DOPC  H10R10692   4.458   4.709   3.263  1.0294  0.6648  2.5856
   78DOPC  C21110693   4.618   4.849   3.219 -0.0558 -0.3711  0.0996
   78DOPC  H11R10694   4.555   4.940   3.223 -0.1556 -0.4344  0.0093
   78DOPC  H11S10695   4.690   4.865   3.136  1.2777 -1.9523  0.9056
   78DOPC  C21210696   4.692   4.822   3.351 -0.4989  0.0029  0.2310
   78DOPC  H12R10697   4.772   4.898   3.364  1.4553 -2.1122  1.3213
   78DOPC  H12S10698   4.731   4.718   3.356 -1.5080 -0.3859  0.1813
   78DOPC  C21310699   4.605   4.835   3.482 -0.1876 -0.1025 -0.7167
   78DOPC  H13R10700   4.664   4.793   3.566 -0.0805  1.4385  0.0284
   78DOPC  H13S10701   4.508   4.783   3.470 -0.3034  0.2430 -1.3359
   78DOPC  C21410702   4.580   4.976   3.526 -0.7404 -0.4507 -0.3307
   78DOPC  H14R10703   4.506   5.017   3.455 -2.3480  0.6059  1.8679
   78DOPC  H14S10704   4.670   5.041   3.536  0.8933 -2.5446 -0.4560
   78DOPC  C21510705   4.494   4.983   3.651 -0.0536  0.7290 -1.1119
   78DOPC  H15R10706   4.419   4.902   3.646  0.1929  0.4769 -0.7655
   78DOPC  H15S10707   4.445   5.083   3.648 -1.4147  0.0927 -0.7801
   78DOPC  C21610708   4.577   4.974   3.786 -0.8488 -0.3014 -0.2151
   78DOPC  H16R10709   4.664   5.042   3.770 -1.2026 -0.1904 -1.8682
   78DOPC  H16S10710   4.631   4.878   3.800  2.0104  1.3393  1.0077
   78DOPC  C21710711   4.503   5.004   3.914 -0.3664  1.4954 -0.1865
   78DOPC  H17R10712   4.450   5.100   3.902 -1.3202  0.9953 -0.0666
   78DOPC  H17S10713   4.572   5.019   4.000  1.2121  2.7597 -1.5991
   78DOPC  C21810714   4.404   4.892   3.954  0.2571 -0.7610 -1.0379
   78DOPC  H18R10715   4.339   4.923   4.038  1.4408  0.9379 -0.6915
   78DOPC  H18S10716   4.453   4.793   3.966 -1.5722 -1.7312 -1.2540
   78DOPC  H18T10717   4.341   4.870   3.865  0.3470 -1.4977 -0.9285
   78DOPC   C3310718   4.921   4.061   2.408 -0.1846 -0.5680 -0.0764
   78DOPC   H3X10719   4.834   4.129   2.417  0.5959  0.6406 -1.1978
   78DOPC   H3Y10720   5.011   4.121   2.383 -1.0511  0.9527  0.3644
   78DOPC   C3410721   4.955   4.024   2.554 -0.3827  0.3541 -0.5122
   78DOPC   H4X10722   4.882   3.966   2.614  1.7216 -0.0386  1.7962
   78DOPC   H4Y10723   4.948   4.115   2.617  1.2511 -0.0045  0.2152
   78DOPC   C3510724   5.088   3.948   2.561 -1.4164 -0.3394 -0.1915
   78DOPC   H5X10725   5.156   4.009   2.497 -2.0329  2.4029  1.5850
   78DOPC   H5Y10726   5.069   3.848   2.515 -0.5984 -0.7601  0.3672
   78DOPC   C3610727   5.153   3.933   2.695 -0.0497 -0.2289  0.1857
   78DOPC   H6X10728   5.078   3.893   2.766 -2.6694  0.0141 -2.2498
   78DOPC   H6Y10729   5.245   3.872   2.681  0.7182  1.3560 -2.5364
   78DOPC   C3710730   5.196   4.069   2.755  0.1062  0.0444 -0.4341
   78DOPC   H7X10731   5.272   4.113   2.687 -0.5677 -1.1732 -2.0474
   78DOPC   H7Y10732   5.110   4.140   2.762  1.1564  1.6296 -2.5291
   78DOPC   C3810733   5.265   4.042   2.894 -0.0932  0.1717 -0.9143
   78DOPC   H8X10734   5.191   3.980   2.949 -2.2236  1.4311 -2.2281
   78DOPC   H8Y10735   5.273   4.136   2.953  0.3744 -1.7367  2.2797
   78DOPC   C3910736   5.407   3.986   2.892 -0.4005 -0.2478  0.8671
   78DOPC   H9X10737   5.488   4.052   2.859 -0.9955  0.1841  0.2336
   78DOPC  C31010738   5.449   3.875   2.956  0.5679  0.3845  0.8498
   78DOPC  H10X10739   5.548   3.836   2.926  0.6062  0.9577  0.2189
   78DOPC  C31110740   5.355   3.777   3.025  0.0164 -0.6963 -0.5962
   78DOPC  H11X10741   5.360   3.684   2.964  2.1285 -0.1448 -1.3775
   78DOPC  H11Y10742   5.248   3.807   3.029  0.6787  1.8301 -0.2361
   78DOPC  C31210743   5.400   3.747   3.164  0.1899 -0.5072 -0.2044
   78DOPC  H12X10744   5.509   3.763   3.176  0.0516 -0.2623  0.8416
   78DOPC  H12Y10745   5.376   3.641   3.190  1.4324 -0.5906  0.6822
   78DOPC  C31310746   5.350   3.851   3.268  0.1876  0.0312  0.0954
   78DOPC  H13X10747   5.368   3.949   3.220  0.5029 -1.3320 -2.8193
   78DOPC  H13Y10748   5.240   3.833   3.273 -0.0048  1.3306  0.8767
   78DOPC  C31410749   5.420   3.837   3.410 -0.6031  0.1567 -0.0866
   78DOPC  H14X10750   5.403   3.730   3.434 -1.9000  0.1137 -1.1112
   78DOPC  H14Y10751   5.530   3.851   3.397 -0.2387  0.1121  2.4704
   78DOPC  C31510752   5.368   3.929   3.517 -0.3638  0.3189 -0.3613
   78DOPC  H15X10753   5.273   3.882   3.550  0.1768 -1.0515 -0.7069
   78DOPC  H15Y10754   5.360   4.034   3.483  1.2644  0.3220 -0.8510
   78DOPC  C31610755   5.448   3.911   3.651  0.2812 -0.3102 -0.1232
   78DOPC  H16X10756   5.445   3.800   3.646  0.8265 -0.2883 -4.9552
   78DOPC  H16Y10757   5.548   3.953   3.628  1.2221 -0.9383  2.4056
   78DOPC  C31710758   5.390   3.977   3.779  0.1608  0.1002  0.4045
   78DOPC  H17X10759   5.392   4.088   3.782 -0.5600  0.1053  2.9755
   78DOPC  H17Y10760   5.288   3.936   3.793  0.4009 -0.0908  1.7634
   78DOPC  C31810761   5.464   3.942   3.909  0.7333 -0.0706  0.0209
   78DOPC  H18X10762   5.574   3.948   3.900  0.5547  0.3978 -2.7452
   78DOPC  H18Y10763   5.423   4.009   3.987 -1.5419 -1.0858 -0.1929
   78DOPC  H18Z10764   5.445   3.837   3.942 -0.1805 -0.7902 -2.4984
   79DOPC     N10765   3.420   0.710   1.475 -0.6797 -0.3733  0.1624
   79DOPC   C1210766   3.514   0.746   1.583 -0.3910  0.4039 -0.1529
   79DOPC  H12A10767   3.460   0.749   1.677 -1.4392 -1.7540 -0.6140
   79DOPC  H12B10768   3.556   0.843   1.561  1.0748  0.1759  1.4023
   79DOPC   C1310769   3.359   0.587   1.512 -0.9111  0.3435  0.3678
   79DOPC  H13A10770   3.309   0.593   1.608 -1.1876 -1.6480  0.3879
   79DOPC  H13B10771   3.296   0.550   1.433 -1.1524  1.6221 -0.0657
   79DOPC  H13C10772   3.434   0.513   1.536 -1.6168  0.0873  1.9534
   79DOPC   C1410773   3.476   0.712   1.331 -0.1516  0.1819  0.1830
   79DOPC  H14A10774   3.576   0.671   1.330  1.6783  4.1464  0.0912
   79DOPC  H14B10775   3.423   0.641   1.269  1.9283 -1.3740  0.0677
   79DOPC  H14C10776   3.471   0.814   1.296  2.9424  0.3306 -0.1072
   79DOPC   C1510777   3.314   0.817   1.478  0.0005 -0.2048 -0.6923
   79DOPC  H15A10778   3.280   0.833   1.580  2.0536  0.2149 -0.0282
   79DOPC  H15B10779   3.234   0.792   1.410  0.6269  1.2551 -2.0171
   79DOPC  H15C10780   3.354   0.911   1.444 -1.3436  0.6204 -0.1035
   79DOPC   C1110781   3.650   0.663   1.598  0.7900 -0.3459  0.5515
   79DOPC  H11A10782   3.636   0.561   1.639  0.6168 -0.5071  0.0945
   79DOPC  H11B10783   3.689   0.656   1.494  1.5363  0.9365  0.7216
   79DOPC     P10784   3.756   0.732   1.832  0.5092  0.0184  0.2814
   79DOPC   O1310785   3.882   0.801   1.867  0.3288 -0.6836 -0.1266
   79DOPC   O1410786   3.745   0.588   1.864  0.5891 -0.5057  0.6551
   79DOPC   O1210787   3.746   0.741   1.674  0.1395  0.4411 -0.4367
   79DOPC   O1110788   3.624   0.800   1.885 -0.2885  0.1978  0.3905
   79DOPC    C110789   3.649   0.901   1.985  0.1816  0.3729 -0.9670
   79DOPC    HA10790   3.544   0.933   2.004 -0.5997 -2.8801  0.8724
   79DOPC    HB10791   3.714   0.983   1.949  1.5556  0.7191  1.9683
   79DOPC    C210792   3.711   0.858   2.125  0.7880 -0.4868 -0.1299
   79DOPC    HS10793   3.817   0.831   2.107  0.6586 -1.1727  0.0761
   79DOPC   O2110794   3.641   0.744   2.171 -0.2740  0.9505  0.2802
   79DOPC   C2110795   3.719   0.662   2.235 -0.1708  0.5232  0.5097
   79DOPC   O2210796   3.845   0.670   2.250  0.3220 -0.0789  0.1272
   79DOPC   C2210797   3.634   0.534   2.273 -0.0870 -0.0457 -0.0641
   79DOPC   H2R10798   3.555   0.520   2.196 -1.2087 -1.7791  1.3145
   79DOPC   H2S10799   3.590   0.551   2.373 -3.6159 -1.7317 -1.1520
   79DOPC    C310800   3.705   0.972   2.224 -0.2388  0.0936 -0.9933
   79DOPC    HX10801   3.601   1.012   2.226 -0.6900 -0.9886 -1.6964
   79DOPC    HY10802   3.767   1.057   2.189  0.0218 -0.3651 -1.6592
   79DOPC   O3110803   3.744   0.938   2.360  0.0235 -0.0631  0.5201
   79DOPC   C3110804   3.874   0.949   2.386  0.0551  0.0782  0.1330
   79DOPC   O3210805   3.953   1.010   2.317 -0.4851 -0.2104 -0.0939
   79DOPC   C3210806   3.915   0.861   2.513  0.3080 -0.3601 -0.1473
   79DOPC   H2X10807   3.839   0.901   2.583  0.3771  1.9023 -1.2938
   79DOPC   H2Y10808   3.896   0.752   2.499 -0.2540 -0.3896  0.7179
   79DOPC   C2310809   3.723   0.407   2.282  0.4038 -0.1311  0.8637
   79DOPC   H3R10810   3.797   0.402   2.200 -2.1760  1.9427 -1.8014
   79DOPC   H3S10811   3.655   0.319   2.271  0.3934  0.0461 -0.5967
   79DOPC   C2410812   3.813   0.391   2.409 -0.2589 -1.0186  1.1674
   79DOPC   H4R10813   3.758   0.428   2.498 -1.0609  1.9677 -0.4302
   79DOPC   H4S10814   3.889   0.470   2.386 -0.5947 -0.4491  1.9513
   79DOPC   C2510815   3.879   0.254   2.428  0.0455 -0.4440 -0.2972
   79DOPC   H5R10816   3.924   0.237   2.328  0.2090  1.7392 -0.6374
   79DOPC   H5S10817   3.805   0.175   2.455  0.6313 -1.6281 -2.0145
   79DOPC   C2610818   3.997   0.284   2.524 -0.6140  1.0216  0.1548
   79DOPC   H6R10819   4.037   0.183   2.550 -0.9356  0.8397 -0.0416
   79DOPC   H6S10820   3.967   0.324   2.623  0.8182  1.2978  0.5110
   79DOPC   C2710821   4.120   0.365   2.478  0.2697  0.0377 -0.0253
   79DOPC   H7R10822   4.085   0.468   2.453 -1.7126 -0.6533 -0.2393
   79DOPC   H7S10823   4.156   0.312   2.387 -1.6473 -2.9590  0.8267
   79DOPC   C2810824   4.237   0.382   2.581 -0.0614 -0.1204 -0.4317
   79DOPC   H8R10825   4.203   0.445   2.666  0.6115 -0.9899  0.4937
   79DOPC   H8S10826   4.323   0.437   2.537 -1.9227  2.8903 -0.5806
   79DOPC   C2910827   4.294   0.252   2.630  0.6173 -0.1652  0.0747
   79DOPC   H9R10828   4.356   0.200   2.556 -1.2740 -2.9281  0.2377
   79DOPC  C21010829   4.278   0.192   2.751  0.8321 -0.5042  0.3244
   79DOPC  H10R10830   4.318   0.090   2.759  1.2110 -0.3686  0.2168
   79DOPC  C21110831   4.198   0.238   2.866  0.3039 -0.5082  0.0463
   79DOPC  H11R10832   4.161   0.155   2.930  3.0748 -1.1194  0.9936
   79DOPC  H11S10833   4.100   0.283   2.838 -0.5052 -1.7819  0.7173
   79DOPC  C21210834   4.273   0.351   2.942 -0.1288  0.7856  0.6861
   79DOPC  H12R10835   4.225   0.441   2.899  0.2402  0.1506 -1.1211
   79DOPC  H12S10836   4.377   0.362   2.906 -0.7866  3.4431 -0.6142
   79DOPC  C21310837   4.278   0.320   3.094  0.0007  0.0268 -0.1216
   79DOPC  H13R10838   4.338   0.395   3.150  0.9150 -2.1986  2.1391
   79DOPC  H13S10839   4.337   0.225   3.100  1.6824  1.0236 -0.2898
   79DOPC  C21410840   4.139   0.306   3.161  0.4145 -0.0349 -0.0753
   79DOPC  H14R10841   4.092   0.222   3.106  1.7668 -0.7652 -0.1447
   79DOPC  H14S10842   4.068   0.387   3.134 -0.8810 -1.2492 -0.3963
   79DOPC  C21510843   4.144   0.282   3.318  1.0442 -0.5721 -0.1042
   79DOPC  H15R10844   4.169   0.179   3.352 -0.2981 -0.8986 -0.0633
   79DOPC  H15S10845   4.040   0.292   3.354  1.5424 -1.6908  1.8203
   79DOPC  C21610846   4.247   0.372   3.392 -0.0433  0.4608  0.7750
   79DOPC  H16R10847   4.223   0.480   3.379  0.7870  0.4231 -1.4130
   79DOPC  H16S10848   4.354   0.360   3.366 -0.2501 -0.3208  0.2666
   79DOPC  C21710849   4.257   0.346   3.542 -0.6529  0.2678  0.0917
   79DOPC  H17R10850   4.303   0.427   3.603  0.6163 -0.9696  0.8401
   79DOPC  H17S10851   4.317   0.254   3.560 -3.1662 -1.3923  0.5945
   79DOPC  C21810852   4.122   0.305   3.614  0.0585  0.2160  0.3233
   79DOPC  H18R10853   4.089   0.212   3.563  0.1691 -0.9406  2.2680
   79DOPC  H18S10854   4.049   0.384   3.587  1.1861  1.0973 -0.2504
   79DOPC  H18T10855   4.132   0.284   3.722  0.3254  0.3601  0.3275
   79DOPC   C3310856   4.068   0.857   2.571  0.3758 -0.0011 -0.3480
   79DOPC   H3X10857   4.095   0.961   2.599 -0.4394  0.0692  0.2307
   79DOPC   H3Y10858   4.135   0.812   2.494 -1.9930 -1.2376 -1.8163
   79DOPC   C3410859   4.079   0.770   2.697  0.2976  0.4698  0.8182
   79DOPC   H4X10860   4.186   0.748   2.718  0.6906  1.1546 -0.4053
   79DOPC   H4Y10861   4.027   0.673   2.681 -1.6240  1.9059 -3.0815
   79DOPC   C3510862   4.011   0.846   2.815  0.1898 -0.3989 -0.1204
   79DOPC   H5X10863   3.902   0.831   2.801 -0.0601  0.7885  0.4061
   79DOPC   H5Y10864   4.030   0.956   2.809  0.9565 -0.6010 -3.5456
   79DOPC   C3610865   4.040   0.788   2.960 -0.4476  0.1168 -0.1243
   79DOPC   H6X10866   3.979   0.846   3.033 -1.0146 -0.3089 -0.2509
   79DOPC   H6Y10867   4.010   0.681   2.968  1.8889 -0.5579  0.1960
   79DOPC   C3710868   4.190   0.791   2.994 -0.4383  0.2066 -0.2780
   79DOPC   H7X10869   4.240   0.692   2.986 -0.5942  0.1819 -1.0482
   79DOPC   H7Y10870   4.231   0.862   2.920  2.5759 -0.8781  0.2035
   79DOPC   C3810871   4.207   0.830   3.139  0.0856 -0.3888 -0.3741
   79DOPC   H8X10872   4.140   0.918   3.154  0.9180  0.0783  0.7775
   79DOPC   H8Y10873   4.309   0.864   3.169 -0.6448  1.7594 -0.1650
   79DOPC   C3910874   4.156   0.729   3.235  0.0609  0.7030 -0.3546
   79DOPC   H9X10875   4.156   0.628   3.190 -0.0400 -0.7230  2.5964
   79DOPC  C31010876   4.121   0.746   3.363 -0.2450 -0.0711 -0.1622
   79DOPC  H10X10877   4.101   0.660   3.429 -0.3434  0.8880  1.1061
   79DOPC  C31110878   4.104   0.875   3.432 -0.6566 -0.5553  0.9733
   79DOPC  H11X10879   4.027   0.943   3.390 -0.7192 -0.1586  1.7151
   79DOPC  H11Y10880   4.201   0.928   3.420 -0.2796 -1.3193  0.5575
   79DOPC  C31210881   4.076   0.856   3.580 -0.4618 -0.0095  0.4274
   79DOPC  H12X10882   4.171   0.834   3.633  1.0052  0.6604 -1.7817
   79DOPC  H12Y10883   4.012   0.767   3.601  1.3838 -1.3143  0.7481
   79DOPC  C31310884   4.019   0.990   3.636  1.0329 -0.1845  0.0190
   79DOPC  H13X10885   4.067   1.083   3.600 -0.5992  0.7033  0.0564
   79DOPC  H13Y10886   3.919   0.985   3.588  0.1052  1.5583  1.6355
   79DOPC  C31410887   3.984   0.988   3.784  0.1804 -0.2587  0.0780
   79DOPC  H14X10888   3.894   0.924   3.792 -2.9840  3.6240 -0.9445
   79DOPC  H14Y10889   4.061   0.939   3.847 -0.3422 -0.0459  0.8865
   79DOPC  C31510890   3.941   1.120   3.847  0.2069  0.1458  0.1796
   79DOPC  H15X10891   4.006   1.201   3.806 -0.2536  0.9649  1.0388
   79DOPC  H15Y10892   3.959   1.127   3.957  3.3014  0.2835 -0.2287
   79DOPC  C31610893   3.794   1.169   3.812 -0.5381  0.2628  0.8415
   79DOPC  H16X10894   3.797   1.235   3.723 -2.5173  0.3796  0.8333
   79DOPC  H16Y10895   3.736   1.080   3.783 -2.7800  1.3974  1.6484
   79DOPC  C31710896   3.729   1.251   3.921 -0.6849  0.2515  0.5785
   79DOPC  H17X10897   3.626   1.266   3.882  0.0761  0.1786 -1.6140
   79DOPC  H17Y10898   3.725   1.177   4.003  1.1526 -0.9781 -0.3646
   79DOPC  C31810899   3.799   1.381   3.957 -0.2571  0.2937  0.3218
   79DOPC  H18X10900   3.737   1.455   4.013  0.9671  2.8488 -1.4886
   79DOPC  H18Y10901   3.895   1.369   4.010 -1.3377  1.0912  2.6018
   79DOPC  H18Z10902   3.833   1.437   3.867  1.9851  1.0662  1.5843
   80DOPC     N10903   1.734   4.510   1.467  0.1503 -0.0211 -0.3844
   80DOPC   C1210904   1.677   4.575   1.594  0.1037  0.0371  0.2204
   80DOPC  H12A10905   1.696   4.681   1.580  4.1257 -0.5694  0.1007
   80DOPC  H12B10906   1.738   4.548   1.679  0.9631  0.8554 -0.1125
   80DOPC   C1310907   1.737   4.361   1.485 -0.0033  0.1582  1.3548
   80DOPC  H13A10908   1.640   4.317   1.504 -0.0493 -0.4826 -0.2299
   80DOPC  H13B10909   1.767   4.320   1.390 -0.1366  2.4123  0.2548
   80DOPC  H13C10910   1.816   4.336   1.555  0.9855 -0.6299  0.0000
   80DOPC   C1410911   1.869   4.555   1.437  0.1344 -0.6149 -0.1917
   80DOPC  H14A10912   1.894   4.510   1.342 -2.5886  0.1535 -1.3649
   80DOPC  H14B10913   1.866   4.662   1.424 -0.4015 -0.5346  0.5340
   80DOPC  H14C10914   1.935   4.528   1.519 -2.5804  0.0705  2.4184
   80DOPC   C1510915   1.646   4.560   1.354 -0.2232  1.1092  0.0934
   80DOPC  H15A10916   1.632   4.490   1.272  0.3276  0.1267  0.8089
   80DOPC  H15B10917   1.686   4.655   1.321  0.0629  1.3744  1.1537
   80DOPC  H15C10918   1.546   4.577   1.391 -0.2917 -1.1576  1.1176
   80DOPC   C1110919   1.525   4.534   1.633 -0.8498  0.8501  0.9510
   80DOPC  H11A10920   1.516   4.426   1.608 -3.2200  1.2527 -0.2217
   80DOPC  H11B10921   1.508   4.553   1.741 -1.1696  1.7473  0.7500
   80DOPC     P10922   1.284   4.617   1.586 -0.0864  0.4875  0.0874
   80DOPC   O1310923   1.244   4.477   1.585  0.2711  0.5400  0.3455
   80DOPC   O1410924   1.207   4.708   1.495 -0.3160 -0.0671 -0.2115
   80DOPC   O1210925   1.441   4.623   1.562  0.3917  0.7183  0.1016
   80DOPC   O1110926   1.269   4.685   1.730  0.2181  0.1480 -0.0136
   80DOPC    C110927   1.332   4.798   1.780  0.0068 -0.3242 -0.0951
   80DOPC    HA10928   1.301   4.889   1.725 -0.8237  1.3184  2.8333
   80DOPC    HB10929   1.442   4.784   1.788 -0.0399  0.0822  1.9723
   80DOPC    C210930   1.280   4.835   1.923  0.2334  0.1687 -1.2293
   80DOPC    HS10931   1.360   4.900   1.964 -0.6366 -0.7320  2.1948
   80DOPC   O2110932   1.264   4.713   2.002  0.1930 -0.1531 -0.1678
   80DOPC   C2110933   1.373   4.665   2.062  0.0907 -0.7857  0.2725
   80DOPC   O2210934   1.483   4.704   2.044 -0.0592 -0.2065 -0.2635
   80DOPC   C2210935   1.337   4.545   2.144 -0.1531  0.0935  0.6914
   80DOPC   H2R10936   1.349   4.465   2.068 -1.3355  0.9344 -0.4267
   80DOPC   H2S10937   1.233   4.559   2.180  0.3750  5.0359  1.0191
   80DOPC    C310938   1.150   4.911   1.934 -0.0390  0.6879  0.6752
   80DOPC    HX10939   1.061   4.876   1.878  0.7103 -0.9021  0.4237
   80DOPC    HY10940   1.178   5.004   1.881  2.2483  0.1599  0.8127
   80DOPC   O3110941   1.124   4.963   2.067 -0.4975 -0.0021 -0.1857
   80DOPC   C3110942   1.042   4.895   2.139 -0.3464 -0.7042  0.1841
   80DOPC   O3210943   0.985   4.795   2.098 -0.2663  0.7115  0.3848
   80DOPC   C3210944   1.013   4.970   2.276 -0.0546  0.4590 -0.1658
   80DOPC   H2X10945   1.080   5.059   2.281  1.1428 -0.4004 -0.3161
   80DOPC   H2Y10946   0.908   5.003   2.282  0.6231  2.8352 -0.3751
   80DOPC   C2310947   1.445   4.494   2.251  0.7926 -1.2935  0.8906
   80DOPC   H3R10948   1.547   4.497   2.207  1.4850  0.9826  2.4677
   80DOPC   H3S10949   1.424   4.385   2.262 -0.5670 -1.1464  0.0709
   80DOPC   C2410950   1.438   4.557   2.388  0.2334 -0.8837 -0.1140
   80DOPC   H4R10951   1.329   4.555   2.404  0.1948 -0.1879 -0.2684
   80DOPC   H4S10952   1.464   4.665   2.391  2.9053 -1.4557  1.0052
   80DOPC   C2510953   1.516   4.475   2.482 -0.8329 -0.3018 -1.2434
   80DOPC   H5R10954   1.626   4.472   2.467 -0.5273  1.2627  0.3019
   80DOPC   H5S10955   1.482   4.369   2.474  1.4041 -1.0806 -1.2592
   80DOPC   C2610956   1.486   4.507   2.628 -0.6546  0.1790 -0.1973
   80DOPC   H6R10957   1.391   4.464   2.668 -1.4263  1.5670 -0.4590
   80DOPC   H6S10958   1.484   4.619   2.627 -0.2289  0.2039 -2.6478
   80DOPC   C2710959   1.603   4.447   2.716  0.2902 -0.1916 -0.5205
   80DOPC   H7R10960   1.597   4.480   2.823  0.5559 -1.6763 -0.0318
   80DOPC   H7S10961   1.697   4.474   2.665 -0.0530 -0.8021 -1.4986
   80DOPC   C2810962   1.594   4.292   2.720 -0.0632  0.3888  0.4459
   80DOPC   H8R10963   1.690   4.256   2.764  0.2467  3.5300  2.6765
   80DOPC   H8S10964   1.593   4.257   2.615  2.0682  1.1469  0.1268
   80DOPC   C2910965   1.472   4.232   2.791  0.3258 -0.5435 -0.6694
   80DOPC   H9R10966   1.374   4.239   2.742 -0.3530 -0.8573  0.6038
   80DOPC  C21010967   1.467   4.194   2.920  0.0585 -0.1444  0.3202
   80DOPC  H10R10968   1.368   4.155   2.948 -0.2600 -1.5701 -2.4308
   80DOPC  C21110969   1.570   4.185   3.025 -0.6996 -0.0207 -0.4199
   80DOPC  H11R10970   1.675   4.203   2.992  0.0160  2.2371  2.6105
   80DOPC  H11S10971   1.574   4.082   3.065 -2.5089 -0.7001 -1.8742
   80DOPC  C21210972   1.561   4.295   3.129 -0.2032 -0.3893 -0.0401
   80DOPC  H12R10973   1.457   4.316   3.159  0.0838 -1.9965  2.3771
   80DOPC  H12S10974   1.597   4.389   3.082  1.2752 -0.3483  1.0622
   80DOPC  C21310975   1.644   4.266   3.257  0.4424  0.2566 -0.1137
   80DOPC  H13R10976   1.752   4.260   3.230  0.3427  2.0213 -1.0246
   80DOPC  H13S10977   1.626   4.166   3.301  1.3809 -0.0514 -0.4067
   80DOPC  C21410978   1.629   4.360   3.376 -0.0506  0.5733  0.3762
   80DOPC  H14R10979   1.525   4.395   3.395 -0.1835  0.3550  0.0583
   80DOPC  H14S10980   1.681   4.453   3.346  0.9567  0.0386  0.4110
   80DOPC  C21510981   1.708   4.313   3.502  0.4752 -0.2283  0.5221
   80DOPC  H15R10982   1.811   4.295   3.465 -0.3710 -0.2717 -2.0710
   80DOPC  H15S10983   1.669   4.214   3.534  1.1944 -0.5883  0.3161
   80DOPC  C21610984   1.719   4.402   3.622 -0.3638 -0.4237  0.0608
   80DOPC  H16R10985   1.659   4.347   3.698  0.1700  0.7053  1.3409
   80DOPC  H16S10986   1.671   4.500   3.600 -0.7667 -1.1919 -2.9811
   80DOPC  C21710987   1.869   4.422   3.674 -0.3295 -0.0142 -0.6108
   80DOPC  H17R10988   1.910   4.320   3.689  2.0393  0.7053 -1.7076
   80DOPC  H17S10989   1.862   4.472   3.773 -2.2648 -1.4073  0.0112
   80DOPC  C21810990   1.962   4.505   3.576  0.1571 -0.1584 -0.1840
   80DOPC  H18R10991   1.945   4.614   3.588  0.9166 -0.1455  1.0040
   80DOPC  H18S10992   1.937   4.487   3.470 -2.1155  2.1058 -0.1179
   80DOPC  H18T10993   2.067   4.475   3.597  0.1798 -0.3013 -0.4956
   80DOPC   C3310994   1.047   4.880   2.406 -0.1589  0.1414  1.1329
   80DOPC   H3X10995   1.020   4.773   2.390 -0.4019  0.5187 -1.3912
   80DOPC   H3Y10996   0.982   4.917   2.488 -0.5659 -0.8525  1.2750
   80DOPC   C3410997   1.186   4.901   2.445  0.3750  0.5749  0.1510
   80DOPC   H4X10998   1.225   5.005   2.435  1.9444  0.1274  1.2509
   80DOPC   H4Y10999   1.251   4.838   2.381  0.0421 -0.6226  0.9491
   80DOPC   C3511000   1.226   4.849   2.586  0.3063  0.1138  0.1951
   80DOPC   H5X11001   1.337   4.840   2.588  0.3320 -0.8798 -2.5115
   80DOPC   H5Y11002   1.184   4.747   2.597  2.7493 -1.2143 -1.7860
   80DOPC   C3611003   1.186   4.935   2.706  0.1004  0.4599 -0.3795
   80DOPC   H6X11004   1.200   5.042   2.679 -2.3352  0.5122 -1.7715
   80DOPC   H6Y11005   1.080   4.919   2.737  0.9519 -0.1280  2.5074
   80DOPC   C3711006   1.264   4.891   2.832 -0.8989  0.4927  0.4355
   80DOPC   H7X11007   1.257   4.780   2.835 -0.3862  0.4816  1.2390
   80DOPC   H7Y11008   1.366   4.926   2.806 -1.3767 -0.9584 -4.3630
   80DOPC   C3811009   1.221   4.948   2.968  0.6545 -0.5017 -0.2037
   80DOPC   H8X11010   1.132   4.893   3.006 -1.1122  0.8731 -2.0779
   80DOPC   H8Y11011   1.168   5.045   2.953  0.3640 -0.1718  2.4443
   80DOPC   C3911012   1.331   4.964   3.074 -0.4039 -0.2588 -0.6397
   80DOPC   H9X11013   1.384   5.061   3.068  1.9604 -1.5472 -2.2139
   80DOPC  C31011014   1.363   4.867   3.158 -0.0711  0.2021 -0.3976
   80DOPC  H10X11015   1.450   4.893   3.221 -0.2656  1.5133 -0.6299
   80DOPC  C31111016   1.312   4.727   3.156 -0.4470  0.1833  0.1999
   80DOPC  H11X11017   1.393   4.652   3.165 -0.6654  0.0841  1.4157
   80DOPC  H11Y11018   1.265   4.699   3.059 -1.0812  1.5783  0.0810
   80DOPC  C31211019   1.211   4.698   3.271 -0.1825 -0.0626  0.1090
   80DOPC  H12X11020   1.194   4.589   3.278  0.0795 -0.0189  1.7979
   80DOPC  H12Y11021   1.116   4.750   3.247 -1.2713 -0.9530  2.2915
   80DOPC  C31311022   1.243   4.758   3.407 -0.4437 -0.0941  0.4191
   80DOPC  H13X11023   1.351   4.752   3.433 -0.4910  3.7363  2.2076
   80DOPC  H13Y11024   1.222   4.867   3.408 -2.2857 -0.4241  0.3698
   80DOPC  C31411025   1.172   4.671   3.519 -0.3906 -1.4125 -0.0950
   80DOPC  H14X11026   1.185   4.723   3.617 -1.5723  0.8087 -1.0372
   80DOPC  H14Y11027   1.062   4.661   3.507 -0.1518 -1.0774 -3.1954
   80DOPC  C31511028   1.215   4.523   3.529 -0.1948 -0.1157  0.4812
   80DOPC  H15X11029   1.325   4.523   3.543  0.2346  0.3712 -2.3337
   80DOPC  H15Y11030   1.190   4.459   3.442  1.1402 -3.3462  2.2980
   80DOPC  C31611031   1.154   4.452   3.649 -0.0497  0.1429 -0.7154
   80DOPC  H16X11032   1.044   4.459   3.638 -0.1094 -1.0900 -1.0686
   80DOPC  H16Y11033   1.190   4.347   3.647  1.4403  0.6356 -1.0135
   80DOPC  C31711034   1.165   4.516   3.790  0.7997  0.4409 -0.1090
   80DOPC  H17X11035   1.111   4.612   3.776  0.6015  0.6071  1.5996
   80DOPC  H17Y11036   1.113   4.466   3.874 -0.5340  2.8336  0.5884
   80DOPC  C31811037   1.307   4.530   3.824  0.2697  0.5783  0.0142
   80DOPC  H18X11038   1.369   4.595   3.759 -0.4295  1.4818  0.2360
   80DOPC  H18Y11039   1.323   4.566   3.928  2.2243  0.4171 -0.2026
   80DOPC  H18Z11040   1.348   4.427   3.816  0.1705  0.5783 -0.5199
   81DOPC     N11041   6.904   0.832   1.493  0.6938  0.0404  0.5282
   81DOPC   C1211042   6.815   0.708   1.461  0.3425 -0.4120  0.0401
   81DOPC  H12A11043   6.864   0.619   1.497 -1.5574 -1.7107 -0.4363
   81DOPC  H12B11044   6.811   0.687   1.355  1.9827 -1.1452  0.1008
   81DOPC   C1311045   6.935   0.842   1.641 -0.3437  0.5848 -0.0345
   81DOPC  H13A11046   6.843   0.840   1.698 -1.0188 -2.5321 -1.0500
   81DOPC  H13B11047   6.992   0.756   1.673  0.7293  2.5303  3.8835
   81DOPC  H13C11048   6.996   0.925   1.672 -2.4061  2.3075 -0.3160
   81DOPC   C1411049   6.824   0.961   1.464  0.4867  0.2316  0.4501
   81DOPC  H14A11050   6.878   1.054   1.474  1.1263  0.1926 -2.0021
   81DOPC  H14B11051   6.793   0.964   1.360 -0.7156  0.2058  0.8008
   81DOPC  H14C11052   6.729   0.971   1.513 -1.5409 -2.2863 -2.5880
   81DOPC   C1511053   7.028   0.831   1.418  0.1121 -0.0361 -0.3243
   81DOPC  H15A11054   7.075   0.735   1.436 -2.3418 -1.3176 -0.2629
   81DOPC  H15B11055   7.088   0.914   1.451 -1.1459  0.5261  0.6125
   81DOPC  H15C11056   7.009   0.841   1.312 -1.1371 -0.3280 -0.1452
   81DOPC   C1111057   6.670   0.694   1.523  0.2094 -0.2383 -0.1738
   81DOPC  H11A11058   6.666   0.708   1.634 -1.2674  3.4665 -0.5599
   81DOPC  H11B11059   6.604   0.777   1.490 -1.2963 -0.7297  1.4042
   81DOPC     P11060   6.685   0.437   1.550  0.2690 -0.1325  0.3902
   81DOPC   O1311061   6.834   0.435   1.539  0.1345 -0.4901  0.2119
   81DOPC   O1411062   6.621   0.317   1.488 -0.4806 -0.2130  0.5304
   81DOPC   O1211063   6.626   0.569   1.483  0.1921 -0.1711 -0.4096
   81DOPC   O1111064   6.650   0.452   1.702  0.3510 -0.3657  0.4373
   81DOPC    C111065   6.510   0.473   1.741 -0.7314  0.2274  0.0865
   81DOPC    HA11066   6.439   0.417   1.676 -0.2492  1.0203 -1.1613
   81DOPC    HB11067   6.494   0.582   1.757 -0.3970  0.3930 -0.6634
   81DOPC    C211068   6.497   0.404   1.884  0.1866  0.2525  0.4517
   81DOPC    HS11069   6.389   0.379   1.894  0.5791 -1.2322  1.2666
   81DOPC   O2111070   6.547   0.487   1.992 -0.2919 -0.1866 -0.4343
   81DOPC   C2111071   6.458   0.577   2.026 -0.6547  0.0117  0.1686
   81DOPC   O2211072   6.347   0.595   1.977 -0.3143  0.1285 -0.5078
   81DOPC   C2211073   6.514   0.649   2.150  0.4195  0.0199  0.0807
   81DOPC   H2R11074   6.548   0.748   2.112  0.2690  0.7841  1.8200
   81DOPC   H2S11075   6.607   0.599   2.183 -0.8368 -3.0308 -0.6774
   81DOPC    C311076   6.568   0.265   1.894 -0.6316  0.1083 -0.5043
   81DOPC    HX11077   6.674   0.268   1.862 -0.2449  0.4689  0.7681
   81DOPC    HY11078   6.517   0.207   1.815 -0.9680  0.3313 -0.4550
   81DOPC   O3111079   6.551   0.201   2.021  0.1669  0.0747  0.7933
   81DOPC   C3111080   6.621   0.237   2.124 -0.1827  0.0484 -0.1992
   81DOPC   O3211081   6.714   0.316   2.113  0.5643  0.1679  0.0213
   81DOPC   C3211082   6.587   0.159   2.251 -0.5175  0.2487 -0.0792
   81DOPC   H2X11083   6.513   0.080   2.226 -2.1548  1.8100 -0.4225
   81DOPC   H2Y11084   6.681   0.111   2.286 -1.4362  0.0519  2.3084
   81DOPC   C2311085   6.414   0.654   2.268  0.2325 -0.3875  0.2458
   81DOPC   H3R11086   6.370   0.555   2.290 -0.5775  0.0246  0.5031
   81DOPC   H3S11087   6.329   0.722   2.245  0.3157 -0.6938 -1.0836
   81DOPC   C2411088   6.472   0.721   2.386  0.5991  0.5624 -1.3194
   81DOPC   H4R11089   6.516   0.818   2.352  1.3603 -0.2958 -2.8869
   81DOPC   H4S11090   6.561   0.666   2.424  0.0424  0.3660 -0.2765
   81DOPC   C2511091   6.373   0.738   2.512 -0.3476  0.6965 -0.5544
   81DOPC   H5R11092   6.328   0.639   2.536 -0.7123  0.8552 -0.5727
   81DOPC   H5S11093   6.290   0.802   2.475 -0.9970  0.3719  0.3224
   81DOPC   C2611094   6.435   0.808   2.631 -0.2425  0.5791  0.0264
   81DOPC   H6R11095   6.519   0.744   2.664 -1.2018 -0.2062  0.9861
   81DOPC   H6S11096   6.366   0.804   2.718  1.4286 -0.8089  1.3684
   81DOPC   C2711097   6.454   0.955   2.604 -0.1531  0.4925 -0.9393
   81DOPC   H7R11098   6.351   0.997   2.608  0.0393  0.9489  3.3224
   81DOPC   H7S11099   6.512   0.991   2.517  0.3106  0.8181 -0.4996
   81DOPC   C2811100   6.528   1.022   2.722 -0.1539  0.6591 -0.1529
   81DOPC   H8R11101   6.471   0.984   2.810  0.3984 -0.3872 -0.2275
   81DOPC   H8S11102   6.493   1.127   2.725 -0.1157  0.6726 -0.1880
   81DOPC   C2911103   6.672   0.991   2.740 -0.3169 -0.3085 -0.5987
   81DOPC   H9R11104   6.707   0.886   2.739  0.4272 -0.1223  1.4292
   81DOPC  C21011105   6.770   1.080   2.747 -0.0086 -0.0349  0.4013
   81DOPC  H10R11106   6.870   1.037   2.760 -0.1927 -0.3557  0.7838
   81DOPC  C21111107   6.763   1.231   2.734  0.3709 -0.6444  0.5788
   81DOPC  H11R11108   6.681   1.268   2.669 -0.5297  0.2773  2.1836
   81DOPC  H11S11109   6.858   1.277   2.700 -0.2041  1.5904  1.8342
   81DOPC  C21211110   6.735   1.289   2.881 -0.2559  0.4246  0.2767
   81DOPC  H12R11111   6.813   1.254   2.952 -0.7257  1.1961  1.1863
   81DOPC  H12S11112   6.634   1.262   2.919 -0.8279  1.3028 -0.5791
   81DOPC  C21311113   6.750   1.441   2.872  0.0951  0.1314  0.3260
   81DOPC  H13R11114   6.705   1.469   2.775 -1.0776  3.2091  1.6207
   81DOPC  H13S11115   6.854   1.480   2.880  0.4187  0.0851 -2.6406
   81DOPC  C21411116   6.654   1.513   2.975 -0.1050  0.2087 -0.1419
   81DOPC  H14R11117   6.557   1.459   2.971  1.3613 -2.6256 -3.2889
   81DOPC  H14S11118   6.623   1.612   2.935 -2.1012 -0.5684 -0.6499
   81DOPC  C21511119   6.696   1.508   3.127 -0.2377  0.1143 -0.1919
   81DOPC  H15R11120   6.696   1.400   3.153  1.6470  0.0640 -0.2349
   81DOPC  H15S11121   6.616   1.562   3.182  0.2401  3.4449 -2.4411
   81DOPC  C21611122   6.828   1.576   3.161 -0.0610  0.5015 -0.0807
   81DOPC  H16R11123   6.822   1.683   3.131  1.9575  0.7453  0.2674
   81DOPC  H16S11124   6.904   1.516   3.105 -1.2436 -0.6355 -0.5267
   81DOPC  C21711125   6.866   1.563   3.309 -0.2236  0.2950 -0.3522
   81DOPC  H17R11126   6.859   1.455   3.332 -0.4301  0.3519 -0.1529
   81DOPC  H17S11127   6.784   1.618   3.359 -0.7417 -0.3097 -0.5304
   81DOPC  C21811128   7.007   1.625   3.341  0.0198  0.2696 -0.0297
   81DOPC  H18R11129   7.037   1.619   3.448  0.6059 -3.7936 -0.2522
   81DOPC  H18S11130   7.016   1.730   3.306  3.3059  1.2451  3.0446
   81DOPC  H18T11131   7.087   1.566   3.291  1.6701  0.7857  1.8833
   81DOPC   C3311132   6.527   0.243   2.361 -0.3687  0.7086 -0.6702
   81DOPC   H3X11133   6.529   0.352   2.336 -2.2478  1.0273  0.3922
   81DOPC   H3Y11134   6.603   0.233   2.441  0.3808  3.1874 -0.9858
   81DOPC   C3411135   6.383   0.194   2.401  0.1102 -0.9952  0.2211
   81DOPC   H4X11136   6.386   0.083   2.405 -0.2632 -1.0368 -0.5771
   81DOPC   H4Y11137   6.315   0.214   2.316 -0.3706 -1.6962  0.4310
   81DOPC   C3511138   6.335   0.273   2.518  0.0986  0.4578 -0.9937
   81DOPC   H5X11139   6.225   0.260   2.513  0.0650 -1.4993  2.1674
   81DOPC   H5Y11140   6.356   0.381   2.502  1.9730  0.0676 -1.4778
   81DOPC   C3611141   6.394   0.211   2.649 -0.5043  0.2398 -0.2970
   81DOPC   H6X11142   6.371   0.102   2.653  1.4523 -0.2078 -0.1654
   81DOPC   H6Y11143   6.505   0.218   2.648 -0.5151  1.3797  1.4796
   81DOPC   C3711144   6.337   0.277   2.776 -0.7027  0.1918  0.1225
   81DOPC   H7X11145   6.416   0.282   2.854  1.2384 -0.5413 -1.7197
   81DOPC   H7Y11146   6.303   0.382   2.771 -1.2448  0.0825  1.1466
   81DOPC   C3811147   6.219   0.201   2.843 -0.0125  0.3490  0.0106
   81DOPC   H8X11148   6.252   0.097   2.863 -1.9654  0.1140  2.3584
   81DOPC   H8Y11149   6.138   0.195   2.767 -0.4655 -0.2866  0.5300
   81DOPC   C3911150   6.173   0.267   2.969 -1.5396 -0.2188  0.4252
   81DOPC   H9X11151   6.132   0.369   2.964  1.8697  1.4438  2.8558
   81DOPC  C31011152   6.177   0.218   3.094  0.0224  0.5976  0.1818
   81DOPC  H10X11153   6.126   0.282   3.168 -0.9560 -1.2184  1.1393
   81DOPC  C31111154   6.232   0.084   3.149 -0.3806 -0.1425 -0.8294
   81DOPC  H11X11155   6.305   0.096   3.231  0.8596  1.0421 -2.0515
   81DOPC  H11Y11156   6.283   0.040   3.061 -1.3241 -0.9919 -0.9767
   81DOPC  C31211157   6.107   0.006   3.189  0.2211 -0.5762  0.2522
   81DOPC  H12X11158   6.139  -0.097   3.217  0.5049 -0.1391  1.5948
   81DOPC  H12Y11159   6.033  -0.010   3.108 -0.3047 -0.7764  0.7635
   81DOPC  C31311160   6.032   0.067   3.310  0.1364  0.8400 -0.4768
   81DOPC  H13X11161   6.017  -0.018   3.381 -1.2990  0.1784 -1.5158
   81DOPC  H13Y11162   6.111   0.129   3.356  1.7898 -1.6830  0.3270
   81DOPC  C31411163   5.900   0.149   3.287  0.4138  0.4757  0.4654
   81DOPC  H14X11164   5.908   0.185   3.182  1.1948  0.2980  0.4567
   81DOPC  H14Y11165   5.815   0.078   3.280  1.0418 -0.3785  1.2253
   81DOPC  C31511166   5.875   0.251   3.393  0.3542 -0.4221 -0.1517
   81DOPC  H15X11167   5.798   0.316   3.347 -0.8857  0.1291  2.5302
   81DOPC  H15Y11168   5.964   0.317   3.402  1.1503 -1.4468 -0.2382
   81DOPC  C31611169   5.829   0.203   3.530 -0.5309  0.7126 -0.6271
   81DOPC  H16X11170   5.750   0.124   3.529 -0.9521  1.1057  0.3060
   81DOPC  H16Y11171   5.916   0.152   3.576 -0.4883  0.4322 -1.0166
   81DOPC  C31711172   5.781   0.312   3.628  0.1920  0.1389 -0.6582
   81DOPC  H17X11173   5.856   0.391   3.650 -1.0077  1.2700 -0.4675
   81DOPC  H17Y11174   5.703   0.364   3.567  1.0974  1.2277 -0.9155
   81DOPC  C31811175   5.730   0.249   3.761  0.0310 -0.1934 -0.5192
   81DOPC  H18X11176   5.812   0.228   3.833 -1.4777 -1.1991  0.9741
   81DOPC  H18Y11177   5.659   0.318   3.811 -0.3053 -1.0516  0.1962
   81DOPC  H18Z11178   5.675   0.155   3.737  1.2336 -0.8511 -0.7799
   82DOPC     N11179   6.247   4.887   1.725 -0.3663  0.1077 -0.4719
   82DOPC   C1211180   6.167   5.012   1.716 -0.8295 -1.3272  0.7211
   82DOPC  H12A11181   6.091   5.003   1.640 -1.5687  0.5055  1.1848
   82DOPC  H12B11182   6.229   5.093   1.681 -1.4919 -0.7454  0.8644
   82DOPC   C1311183   6.173   4.768   1.781  0.6762  0.0887 -0.6845
   82DOPC  H13A11184   6.231   4.677   1.786 -1.0133 -1.1186 -2.0198
   82DOPC  H13B11185   6.144   4.784   1.883  2.9568 -0.3535  0.1053
   82DOPC  H13C11186   6.083   4.741   1.728  1.2801 -2.2995 -0.5838
   82DOPC   C1411187   6.361   4.910   1.810  0.3211 -0.2487  0.2469
   82DOPC  H14A11188   6.326   4.940   1.907  0.1599  1.5044 -0.3158
   82DOPC  H14B11189   6.436   4.832   1.811  1.9657  1.2771  0.6409
   82DOPC  H14C11190   6.416   4.993   1.767 -1.7466  0.8636 -0.3843
   82DOPC   C1511191   6.288   4.853   1.585  0.1581  0.0568 -0.1492
   82DOPC  H15A11192   6.349   4.938   1.562 -0.7545  0.7977  0.1049
   82DOPC  H15B11193   6.206   4.862   1.515  1.1410  0.8992 -1.2390
   82DOPC  H15C11194   6.337   4.757   1.582  1.1287  0.4145  2.1822
   82DOPC   C1111195   6.090   5.051   1.836 -0.1723 -0.1196 -0.9562
   82DOPC  H11A11196   6.019   4.968   1.858  0.6824 -0.8435 -0.8929
   82DOPC  H11B11197   6.155   5.063   1.926 -1.3502  0.0404 -0.0887
   82DOPC     P11198   5.945   5.264   1.905 -0.2057 -0.0124  0.1280
   82DOPC   O1311199   5.817   5.204   1.955 -0.0304 -0.8284 -0.3100
   82DOPC   O1411200   5.933   5.390   1.828 -0.0312  0.3390 -0.3908
   82DOPC   O1211201   6.020   5.168   1.809 -0.0771  0.2260 -0.0992
   82DOPC   O1111202   6.044   5.283   2.026 -0.6881  0.5816 -0.5606
   82DOPC    C111203   5.991   5.332   2.150  0.2078  0.4065 -0.3774
   82DOPC    HA11204   5.917   5.415   2.145 -0.5876  0.0254  2.8625
   82DOPC    HB11205   6.078   5.371   2.205 -0.0930  1.1597 -0.4281
   82DOPC    C211206   5.940   5.222   2.249  0.2284  0.0290 -0.9242
   82DOPC    HS11207   5.848   5.194   2.194  1.3093  2.3827 -4.2358
   82DOPC   O2111208   5.910   5.274   2.387 -0.0588 -0.1274  0.2704
   82DOPC   C2111209   5.812   5.366   2.390  0.5660 -0.5145 -0.4532
   82DOPC   O2211210   5.739   5.402   2.299  0.0065  0.2601 -1.0170
   82DOPC   C2211211   5.793   5.414   2.534  0.1656 -0.1405  0.5837
   82DOPC   H2R11212   5.699   5.471   2.546 -1.0614 -0.8532 -3.6763
   82DOPC   H2S11213   5.874   5.486   2.559 -1.9590  2.3727  0.6607
   82DOPC    C311214   6.030   5.104   2.259 -0.1658  0.1401  0.7659
   82DOPC    HX11215   6.111   5.135   2.329 -0.7382  2.2548  0.5432
   82DOPC    HY11216   6.073   5.074   2.161 -1.2160  0.7218  0.1111
   82DOPC   O3111217   5.957   4.986   2.312 -0.8432  0.4865  0.0074
   82DOPC   C3111218   6.012   4.906   2.400 -0.2078  0.7526  0.2277
   82DOPC   O3211219   6.126   4.912   2.454 -0.1469  0.2796 -0.3492
   82DOPC   C3211220   5.911   4.796   2.426  0.0241  0.3813  0.0096
   82DOPC   H2X11221   5.859   4.763   2.334  1.7082 -0.3432 -0.7149
   82DOPC   H2Y11222   5.963   4.701   2.447  0.0788  0.5346  0.5945
   82DOPC   C2311223   5.798   5.299   2.635 -0.0035  0.1258  0.9942
   82DOPC   H3R11224   5.883   5.227   2.628 -0.7908 -0.6928 -0.8215
   82DOPC   H3S11225   5.709   5.237   2.612  0.9278 -0.1217 -2.4591
   82DOPC   C2411226   5.790   5.344   2.784 -0.1957  0.0569 -0.2215
   82DOPC   H4R11227   5.691   5.394   2.790 -1.9580 -3.2668  0.6840
   82DOPC   H4S11228   5.873   5.416   2.800 -0.6066  0.2061  1.5197
   82DOPC   C2511229   5.798   5.233   2.886  0.4389  0.1683 -0.5939
   82DOPC   H5R11230   5.871   5.160   2.845 -0.1053 -1.9900  1.9898
   82DOPC   H5S11231   5.700   5.186   2.908  0.5936 -1.1743 -2.5641
   82DOPC   C2611232   5.858   5.267   3.025  0.4597  0.2728 -0.3840
   82DOPC   H6R11233   5.866   5.180   3.093 -0.6873  0.0169 -0.5614
   82DOPC   H6S11234   5.789   5.344   3.067 -0.0562 -0.9191  1.0288
   82DOPC   C2711235   5.991   5.340   3.017  0.4295 -0.3699  0.7493
   82DOPC   H7R11236   5.969   5.449   3.007 -1.2839 -0.7016  0.5113
   82DOPC   H7S11237   6.046   5.316   2.924 -0.6096 -1.5347  0.4055
   82DOPC   C2811238   6.075   5.316   3.146 -0.0790  0.3614  0.4977
   82DOPC   H8R11239   6.072   5.208   3.169 -0.5531  0.0573 -0.8587
   82DOPC   H8S11240   6.008   5.373   3.214 -1.6300  0.7167 -1.2322
   82DOPC   C2911241   6.213   5.377   3.128  0.0117  0.2150 -0.0459
   82DOPC   H9R11242   6.258   5.341   3.034 -1.1545 -0.3688 -0.4104
   82DOPC  C21011243   6.272   5.470   3.204  0.0035  0.1588 -0.2342
   82DOPC  H10R11244   6.378   5.494   3.190  0.3993 -0.0568  1.9672
   82DOPC  C21111245   6.213   5.538   3.330 -0.1218  0.6151 -0.4646
   82DOPC  H11R11246   6.103   5.528   3.325 -0.2201  0.9074  0.7793
   82DOPC  H11S11247   6.251   5.642   3.322  0.2925  0.3893 -1.5817
   82DOPC  C21211248   6.262   5.487   3.469  0.6954  0.0780  0.2697
   82DOPC  H12R11249   6.224   5.560   3.543  1.2127 -0.1885  0.8069
   82DOPC  H12S11250   6.373   5.490   3.472  0.7081 -0.7421  1.6137
   82DOPC  C21311251   6.226   5.337   3.505 -0.0404  0.5683 -0.3721
   82DOPC  H13R11252   6.211   5.281   3.410 -3.7572  0.1765  0.2605
   82DOPC  H13S11253   6.124   5.335   3.549  0.2052  1.6340  0.2765
   82DOPC  C21411254   6.316   5.270   3.611  0.0425 -0.1531 -0.2049
   82DOPC  H14R11255   6.426   5.276   3.593  0.6049  2.1201  3.1318
   82DOPC  H14S11256   6.286   5.165   3.634  0.8113 -1.1935 -3.4526
   82DOPC  C21511257   6.295   5.347   3.746  0.2425 -0.3061  0.2483
   82DOPC  H15R11258   6.289   5.457   3.730 -0.8125 -0.3450  0.3169
   82DOPC  H15S11259   6.382   5.323   3.811  0.8472 -2.2793 -1.1964
   82DOPC  C21611260   6.169   5.308   3.831  0.2529  0.2440 -0.1085
   82DOPC  H16R11261   6.154   5.198   3.830 -1.7235  0.4852 -0.7254
   82DOPC  H16S11262   6.075   5.360   3.801 -0.5466 -0.1362  1.5792
   82DOPC  C21711263   6.207   5.346   3.971 -0.0680  0.3436 -0.6874
   82DOPC  H17R11264   6.211   5.456   3.977  0.5105  0.2418  1.9468
   82DOPC  H17S11265   6.299   5.294   4.007 -1.1448 -1.4175 -0.3577
   82DOPC  C21811266   6.101   5.303   4.071  0.3034  0.0686  0.3370
   82DOPC  H18R11267   6.004   5.354   4.053  0.9577  0.7037 -1.6328
   82DOPC  H18S11268   6.134   5.335   4.172 -1.4149  0.5422  0.7849
   82DOPC  H18T11269   6.077   5.194   4.076  1.2133 -0.1370  0.3875
   82DOPC   C3311270   5.812   4.823   2.548  0.2943  0.1752 -0.0071
   82DOPC   H3X11271   5.725   4.753   2.546  1.5422 -1.4698  0.5551
   82DOPC   H3Y11272   5.761   4.921   2.538 -1.7248 -0.5850  2.0313
   82DOPC   C3411273   5.877   4.831   2.684  0.7550  0.0916 -0.2468
   82DOPC   H4X11274   5.825   4.887   2.764  2.1803  1.7420 -0.4230
   82DOPC   H4Y11275   5.972   4.887   2.672  0.3191  0.7081 -0.8453
   82DOPC   C3511276   5.911   4.699   2.744 -0.5922 -0.1199  0.3130
   82DOPC   H5X11277   5.952   4.726   2.844 -2.0187  0.3973  0.7882
   82DOPC   H5Y11278   5.988   4.647   2.683 -0.8283 -1.4534  1.1125
   82DOPC   C3611279   5.798   4.601   2.744  0.8130 -0.5354 -0.4798
   82DOPC   H6X11280   5.699   4.647   2.760  0.7112 -0.2834 -1.7624
   82DOPC   H6Y11281   5.796   4.561   2.641 -0.2257  0.7351 -0.9742
   82DOPC   C3711282   5.818   4.485   2.845 -0.2059 -0.2704  0.0513
   82DOPC   H7X11283   5.906   4.434   2.799 -1.0208 -0.6825 -1.1114
   82DOPC   H7Y11284   5.834   4.528   2.946 -1.6412  1.9734 -0.6213
   82DOPC   C3811285   5.696   4.384   2.856  0.3855  0.2201 -0.5293
   82DOPC   H8X11286   5.653   4.355   2.757  0.2932 -1.6719  0.0316
   82DOPC   H8Y11287   5.607   4.440   2.892 -2.7368 -3.2773 -2.0897
   82DOPC   C3911288   5.711   4.260   2.935  0.5773  0.0373 -0.9388
   82DOPC   H9X11289   5.780   4.185   2.894  2.6581  1.8408 -0.9030
   82DOPC  C31011290   5.629   4.220   3.044 -0.2951  0.0956  0.2323
   82DOPC  H10X11291   5.656   4.126   3.095 -1.0956 -0.1898  0.1339
   82DOPC  C31111292   5.530   4.292   3.123  0.1964  0.6404 -0.5796
   82DOPC  H11X11293   5.448   4.217   3.131  1.9444 -1.2155  0.7105
   82DOPC  H11Y11294   5.487   4.381   3.073  0.1627  1.3970  0.7501
   82DOPC  C31211295   5.563   4.315   3.270 -0.5474  0.2814  0.4669
   82DOPC  H12X11296   5.655   4.377   3.270  0.6217 -1.3844  0.1549
   82DOPC  H12Y11297   5.584   4.231   3.340 -2.1626 -0.8441 -0.3181
   82DOPC  C31311298   5.452   4.405   3.331 -0.2195  0.3572 -0.4791
   82DOPC  H13X11299   5.441   4.500   3.274  1.4800  1.8822  1.5379
   82DOPC  H13Y11300   5.363   4.340   3.331  0.1384 -0.1379 -0.4465
   82DOPC  C31411301   5.492   4.460   3.471 -0.4270 -0.7206 -0.0043
   82DOPC  H14X11302   5.464   4.380   3.544  0.1629 -0.5862  0.3797
   82DOPC  H14Y11303   5.601   4.481   3.477  0.0471 -1.6295 -3.3936
   82DOPC  C31511304   5.414   4.590   3.501  0.1956  0.5405 -0.0950
   82DOPC  H15X11305   5.307   4.577   3.474 -0.2790  0.1381  1.8161
   82DOPC  H15Y11306   5.444   4.678   3.440 -1.0422  0.3411 -1.0127
   82DOPC  C31611307   5.422   4.630   3.653 -0.1456 -0.1783  0.3653
   82DOPC  H16X11308   5.374   4.553   3.717 -1.4616 -0.3346 -0.7742
   82DOPC  H16Y11309   5.530   4.634   3.676  0.6920 -2.4300 -2.5156
   82DOPC  C31711310   5.355   4.762   3.705 -0.1478 -0.8177  0.0703
   82DOPC  H17X11311   5.408   4.844   3.653 -0.2374 -0.5413  0.4084
   82DOPC  H17Y11312   5.247   4.775   3.680 -0.2769 -1.7476  0.0987
   82DOPC  C31811313   5.372   4.785   3.854  0.8203 -0.3032 -0.9098
   82DOPC  H18X11314   5.340   4.885   3.890  0.1690 -0.7306 -0.2639
   82DOPC  H18Y11315   5.328   4.703   3.916  0.5981  0.8234  0.4891
   82DOPC  H18Z11316   5.479   4.769   3.880  1.3887  0.6874 -2.5560
   83DOPC     N11317   3.316   4.289   1.943  0.3391 -0.2061  0.1208
   83DOPC   C1211318   3.435   4.325   1.858 -0.1592  0.0508 -0.1490
   83DOPC  H12A11319   3.405   4.303   1.756  0.3709 -0.9105 -0.1097
   83DOPC  H12B11320   3.515   4.255   1.877  0.4848  1.2413  1.7687
   83DOPC   C1311321   3.206   4.381   1.902  0.4625  0.6479  0.1782
   83DOPC  H13A11322   3.181   4.376   1.797  3.6131  0.3563 -0.6661
   83DOPC  H13B11323   3.112   4.353   1.948  1.5324 -1.1535  1.4209
   83DOPC  H13C11324   3.224   4.483   1.930 -1.0897  0.5777  1.5571
   83DOPC   C1411325   3.333   4.319   2.090 -0.2896 -0.1098 -0.3806
   83DOPC  H14A11326   3.243   4.318   2.150  0.0071  1.2481  0.1218
   83DOPC  H14B11327   3.406   4.248   2.128  0.6036  1.0082  0.0548
   83DOPC  H14C11328   3.375   4.418   2.101 -0.1576 -0.1537 -0.4783
   83DOPC   C1511329   3.257   4.148   1.925 -0.0929 -0.2586  0.2755
   83DOPC  H15A11330   3.222   4.126   1.826  1.0550 -0.5601 -0.0873
   83DOPC  H15B11331   3.172   4.135   1.990 -0.7453 -0.8084 -0.6660
   83DOPC  H15C11332   3.327   4.071   1.954 -0.9345 -0.9425  0.5304
   83DOPC   C1111333   3.484   4.467   1.866  0.1045 -0.4835 -0.2025
   83DOPC  H11A11334   3.408   4.545   1.842  2.2661  1.9344  0.3063
   83DOPC  H11B11335   3.514   4.494   1.970 -0.3589 -1.2797  0.1486
   83DOPC     P11336   3.748   4.499   1.800  0.2820  0.5201 -0.2449
   83DOPC   O1311337   3.795   4.633   1.755  0.6358  0.3444 -0.0642
   83DOPC   O1411338   3.822   4.385   1.746  0.3354  0.5125  0.5494
   83DOPC   O1211339   3.590   4.483   1.772 -0.1981 -0.5172  0.1043
   83DOPC   O1111340   3.755   4.498   1.960 -0.1936  0.0936 -0.2561
   83DOPC    C111341   3.763   4.377   2.038  0.1964  0.1383  0.7667
   83DOPC    HA11342   3.865   4.335   2.023  1.1323  2.0348  1.3325
   83DOPC    HB11343   3.696   4.295   2.006  0.8227 -0.4118  0.8510
   83DOPC    C211344   3.752   4.409   2.191  0.0847 -0.2417 -0.0139
   83DOPC    HS11345   3.654   4.462   2.195 -0.2967 -1.0058  1.6098
   83DOPC   O2111346   3.867   4.493   2.228  0.2504 -0.2116 -0.3671
   83DOPC   C2111347   3.834   4.595   2.313 -0.4731  0.0031 -0.1405
   83DOPC   O2211348   3.720   4.612   2.355 -0.2618  0.4012 -0.1988
   83DOPC   C2211349   3.951   4.683   2.365  0.6703  0.2797  0.6157
   83DOPC   H2R11350   3.998   4.727   2.274 -2.7854  0.6525 -1.1251
   83DOPC   H2S11351   4.027   4.614   2.408  0.4361  0.9986  2.2372
   83DOPC    C311352   3.763   4.280   2.273  0.0239 -0.2730  0.0596
   83DOPC    HX11353   3.852   4.229   2.231  0.8007  0.8913  0.2495
   83DOPC    HY11354   3.686   4.202   2.255 -1.1309  0.9776 -0.6103
   83DOPC   O3111355   3.779   4.317   2.415 -0.0659  0.4922  0.0823
   83DOPC   C3111356   3.667   4.322   2.489 -0.0217 -0.3836  0.3717
   83DOPC   O3211357   3.556   4.301   2.448  0.0064  0.1724  0.3876
   83DOPC   C3211358   3.697   4.389   2.627  0.5382 -0.0159 -0.7989
   83DOPC   H2X11359   3.796   4.358   2.666  0.1175  0.1755  0.4813
   83DOPC   H2Y11360   3.701   4.498   2.603 -2.8965  0.4696  0.3630
   83DOPC   C2311361   3.907   4.786   2.465 -0.1623 -0.7891  0.1575
   83DOPC   H3R11362   3.856   4.736   2.550 -1.5765  0.2520 -0.0429
   83DOPC   H3S11363   3.846   4.871   2.429  2.0655  0.2268 -1.5160
   83DOPC   C2411364   4.035   4.849   2.525  0.8163 -0.1289 -0.9079
   83DOPC   H4R11365   4.078   4.929   2.461 -0.6580  0.2673 -1.4438
   83DOPC   H4S11366   4.111   4.772   2.550  1.7896  0.7952 -0.9462
   83DOPC   C2511367   4.015   4.909   2.661  0.0148  0.1604 -0.0511
   83DOPC   H5R11368   3.958   5.003   2.644  0.5862  0.7663  1.2227
   83DOPC   H5S11369   4.116   4.937   2.697 -0.4128  1.3860  0.2503
   83DOPC   C2611370   3.951   4.828   2.765 -0.7216  0.5948  0.6860
   83DOPC   H6R11371   4.001   4.730   2.782 -2.2772 -0.0549  1.6585
   83DOPC   H6S11372   3.845   4.812   2.737  0.1907 -1.4010 -2.0682
   83DOPC   C2711373   3.951   4.898   2.906  1.3031 -0.4387 -0.0105
   83DOPC   H7R11374   3.908   5.000   2.896  2.9718  0.5927  2.4462
   83DOPC   H7S11375   4.058   4.922   2.921  1.3752 -0.3991 -0.5449
   83DOPC   C2811376   3.910   4.811   3.022  0.4898 -0.5988 -0.2612
   83DOPC   H8R11377   3.938   4.854   3.121 -0.8417 -0.1443 -0.0700
   83DOPC   H8S11378   3.961   4.712   3.022 -0.8668 -1.3289  0.3569
   83DOPC   C2911379   3.760   4.784   3.006 -0.1244  0.3560 -0.0925
   83DOPC   H9R11380   3.702   4.872   2.976  0.3432  0.9607  0.7180
   83DOPC  C21011381   3.705   4.667   3.037  0.3360 -0.3964  0.6588
   83DOPC  H10R11382   3.598   4.662   3.012  0.7779 -0.3291 -1.4625
   83DOPC  C21111383   3.756   4.530   3.083 -0.2630  0.5129  0.2230
   83DOPC  H11R11384   3.866   4.549   3.080  0.1390 -1.6093 -2.5779
   83DOPC  H11S11385   3.746   4.450   3.007  0.6392  0.7531 -0.1612
   83DOPC  C21211386   3.713   4.501   3.234 -0.0925  0.1274  0.6365
   83DOPC  H12R11387   3.736   4.587   3.302 -1.2644  1.0060 -0.0403
   83DOPC  H12S11388   3.785   4.419   3.256  1.2486  1.0974  0.0387
   83DOPC  C21311389   3.572   4.447   3.258 -0.3511  0.1306  0.5417
   83DOPC  H13R11390   3.573   4.336   3.255  0.1075  0.0463  2.5090
   83DOPC  H13S11391   3.499   4.478   3.180  1.5612  1.4826 -0.7845
   83DOPC  C21411392   3.518   4.488   3.396  0.5182  0.0371  0.1639
   83DOPC  H14R11393   3.504   4.598   3.404 -1.1610 -0.0109 -1.3340
   83DOPC  H14S11394   3.605   4.465   3.460  0.4911  1.8772  0.9227
   83DOPC  C21511395   3.391   4.416   3.439  0.1982  0.0941 -0.7007
   83DOPC  H15R11396   3.409   4.308   3.457 -0.4119  0.1394  0.2687
   83DOPC  H15S11397   3.307   4.430   3.369 -1.3365  1.1255  1.2539
   83DOPC  C21611398   3.340   4.474   3.572 -0.4522  1.0641 -0.1341
   83DOPC  H16R11399   3.307   4.580   3.558 -1.1301  1.2194  2.1563
   83DOPC  H16S11400   3.422   4.477   3.646 -0.1743  1.5494 -0.4560
   83DOPC  C21711401   3.221   4.391   3.631 -0.1330  0.0111 -0.5390
   83DOPC  H17R11402   3.245   4.283   3.623  0.1675  0.1832 -2.6472
   83DOPC  H17S11403   3.141   4.411   3.557  0.3559  1.1015 -0.8039
   83DOPC  C21811404   3.156   4.428   3.768 -0.1264 -0.6049 -0.1013
   83DOPC  H18R11405   3.105   4.526   3.765  2.1446  0.6312 -0.7419
   83DOPC  H18S11406   3.242   4.438   3.838  0.4396 -3.4169 -0.2549
   83DOPC  H18T11407   3.094   4.345   3.810 -1.5695  0.0134 -0.9501
   83DOPC   C3311408   3.589   4.367   2.739  0.4068  0.2199 -0.2453
   83DOPC   H3X11409   3.489   4.393   2.698 -1.4869 -0.7143  3.3797
   83DOPC   H3Y11410   3.608   4.428   2.830 -0.6147 -0.2028  0.2681
   83DOPC   C3411411   3.590   4.214   2.771  0.1763 -0.8940  0.4991
   83DOPC   H4X11412   3.692   4.170   2.770  0.3747 -0.4542  0.8231
   83DOPC   H4Y11413   3.525   4.166   2.694 -0.6067  2.1118 -0.8650
   83DOPC   C3511414   3.520   4.200   2.907 -0.1160  0.0744  0.3605
   83DOPC   H5X11415   3.423   4.254   2.902 -0.1265 -0.0128 -0.4497
   83DOPC   H5Y11416   3.584   4.249   2.984  0.7228 -0.8533  0.2759
   83DOPC   C3611417   3.488   4.054   2.949  0.0241  0.2003 -0.2481
   83DOPC   H6X11418   3.448   4.007   2.856  1.3048 -0.2243 -0.6107
   83DOPC   H6Y11419   3.584   4.002   2.971  0.9215  2.6380  2.0665
   83DOPC   C3711420   3.398   4.047   3.078  0.8746  0.0973 -0.6749
   83DOPC   H7X11421   3.452   4.104   3.157 -1.2836  0.2847  0.7337
   83DOPC   H7Y11422   3.301   4.096   3.055  0.3193 -0.3193  0.6497
   83DOPC   C3811423   3.368   3.901   3.113  0.2888  0.8518 -0.2427
   83DOPC   H8X11424   3.470   3.856   3.120 -0.3475 -0.7479 -0.7653
   83DOPC   H8Y11425   3.315   3.851   3.030  0.3243 -0.5442  0.5501
   83DOPC   C3911426   3.289   3.875   3.247  0.3695  0.4488  0.2011
   83DOPC   H9X11427   3.186   3.913   3.242  0.0756 -0.5293 -2.5516
   83DOPC  C31011428   3.334   3.834   3.369  0.8200 -0.7299 -0.4465
   83DOPC  H10X11429   3.258   3.816   3.446 -0.9447 -2.2074 -2.3953
   83DOPC  C31111430   3.475   3.789   3.392 -0.3993  0.4395  0.3283
   83DOPC  H11X11431   3.545   3.867   3.427 -0.5116 -0.0294  1.6352
   83DOPC  H11Y11432   3.510   3.718   3.313 -0.3681  1.2905 -0.4387
   83DOPC  C31211433   3.458   3.694   3.510 -0.0596 -0.1359  0.1227
   83DOPC  H12X11434   3.398   3.603   3.491 -1.0819  0.2972  1.1631
   83DOPC  H12Y11435   3.412   3.747   3.597 -1.3412 -2.3684  0.8783
   83DOPC  C31311436   3.590   3.639   3.570  0.6146 -0.6258  0.1223
   83DOPC  H13X11437   3.646   3.727   3.609  1.0925 -0.5559 -0.6927
   83DOPC  H13Y11438   3.572   3.581   3.663  1.2238 -0.9611  0.0377
   83DOPC  C31411439   3.684   3.571   3.471 -0.0745  0.0278  0.3668
   83DOPC  H14X11440   3.630   3.479   3.439 -1.1895  1.3385 -1.7779
   83DOPC  H14Y11441   3.691   3.629   3.377 -2.2060 -1.3909 -0.7465
   83DOPC  C31511442   3.822   3.525   3.528  0.3109 -0.1661 -0.5327
   83DOPC  H15X11443   3.854   3.427   3.486 -0.2658 -0.3213 -0.6173
   83DOPC  H15Y11444   3.805   3.495   3.634  0.2443 -1.7543 -0.9762
   83DOPC  C31611445   3.940   3.620   3.511 -0.2588  0.2576  0.7982
   83DOPC  H16X11446   3.958   3.625   3.402  0.6485  1.0281  0.9692
   83DOPC  H16Y11447   3.910   3.713   3.564 -0.3068  0.2971  0.7006
   83DOPC  C31711448   4.068   3.568   3.575  0.4337  0.7351  0.1815
   83DOPC  H17X11449   4.090   3.474   3.520  0.9954  0.7256  0.4156
   83DOPC  H17Y11450   4.155   3.638   3.569 -1.1513  2.6746 -3.4093
   83DOPC  C31811451   4.061   3.542   3.730  0.7212  0.1788  0.4829
   83DOPC  H18X11452   4.079   3.639   3.782  1.3914  0.7312 -0.7496
   83DOPC  H18Y11453   3.969   3.499   3.777  1.8474 -0.5575  2.1350
   83DOPC  H18Z11454   4.141   3.472   3.763  1.6385 -0.7168 -3.2086
   84DOPC     N11455   1.515   6.690   1.448 -0.6064 -0.3418  0.1242
   84DOPC   C1211456   1.462   6.747   1.572 -0.7770  0.2710  0.2883
   84DOPC  H12A11457   1.382   6.686   1.611  0.8226 -0.7272  2.1617
   84DOPC  H12B11458   1.415   6.842   1.548 -0.0991  0.3112 -0.9801
   84DOPC   C1311459   1.401   6.694   1.347  0.0762 -0.2676 -0.1742
   84DOPC  H13A11460   1.392   6.797   1.316  2.2969  0.1932  0.6058
   84DOPC  H13B11461   1.423   6.644   1.253 -0.0955 -0.5034 -0.0925
   84DOPC  H13C11462   1.308   6.650   1.382 -0.9655  2.3336  0.5568
   84DOPC   C1411463   1.547   6.548   1.467  0.6927 -1.8602 -0.5302
   84DOPC  H14A11464   1.595   6.512   1.557  0.0744 -2.2415 -0.3473
   84DOPC  H14B11465   1.453   6.499   1.449 -0.0119 -1.7158  2.2372
   84DOPC  H14C11466   1.607   6.515   1.384  1.2134 -1.9559 -0.1161
   84DOPC   C1511467   1.638   6.759   1.391  0.0723  0.2791 -0.3116
   84DOPC  H15A11468   1.668   6.713   1.298 -0.4975  0.1420 -0.4320
   84DOPC  H15B11469   1.723   6.762   1.457  0.3753  0.6591 -0.7110
   84DOPC  H15C11470   1.607   6.862   1.374 -1.3233 -0.2484 -1.1304
   84DOPC   C1111471   1.556   6.787   1.686 -0.3090 -0.3267 -0.1801
   84DOPC  H11A11472   1.615   6.694   1.703 -0.7977 -0.3812  1.3123
   84DOPC  H11B11473   1.638   6.856   1.658 -0.3600 -0.2805 -0.2170
   84DOPC     P11474   1.429   6.704   1.897 -0.5650  0.1229 -0.2108
   84DOPC   O1311475   1.330   6.644   1.806 -0.1266 -0.6183  0.1285
   84DOPC   O1411476   1.382   6.766   2.022 -0.6385  0.0076  0.1101
   84DOPC   O1211477   1.491   6.828   1.814  0.0208  0.3761  0.7173
   84DOPC   O1111478   1.556   6.605   1.918  0.2617 -0.0612 -0.6962
   84DOPC    C111479   1.666   6.640   1.998  0.0965 -0.1712 -0.1090
   84DOPC    HA11480   1.687   6.749   2.002  1.0013 -0.3105 -0.8322
   84DOPC    HB11481   1.762   6.600   1.959  0.1461 -1.4598  1.2434
   84DOPC    C211482   1.658   6.598   2.147  0.5974  0.6416  0.1322
   84DOPC    HS11483   1.570   6.648   2.193 -1.3443 -0.4674 -2.1568
   84DOPC   O2111484   1.785   6.624   2.208  0.0849  0.0639 -0.2299
   84DOPC   C2111485   1.778   6.660   2.340 -0.3106  0.3447 -0.1656
   84DOPC   O2211486   1.681   6.675   2.407  0.5270 -0.2904 -0.0647
   84DOPC   C2211487   1.923   6.686   2.383 -0.6278 -0.4319 -0.3897
   84DOPC   H2R11488   1.997   6.652   2.306  1.5670  0.4073  1.2464
   84DOPC   H2S11489   1.943   6.625   2.473  2.3383 -0.1464 -0.7378
   84DOPC    C311490   1.629   6.441   2.156  0.7948 -0.1208  0.4983
   84DOPC    HX11491   1.713   6.398   2.098  2.4846 -0.2762  2.9000
   84DOPC    HY11492   1.534   6.428   2.099  0.8000  0.9618  0.2290
   84DOPC   O3111493   1.636   6.390   2.287  0.1906  1.0422 -0.0228
   84DOPC   C3111494   1.542   6.422   2.376 -0.5701  0.4819 -1.2974
   84DOPC   O3211495   1.440   6.476   2.350  0.0185  0.4217 -0.2236
   84DOPC   C3211496   1.588   6.357   2.508  0.3418  0.4961  0.5547
   84DOPC   H2X11497   1.524   6.268   2.527  1.0663 -0.0890  0.3044
   84DOPC   H2Y11498   1.692   6.319   2.501 -0.7428 -2.5236 -4.8939
   84DOPC   C2311499   1.960   6.839   2.413 -0.0745  0.6610 -0.5556
   84DOPC   H3R11500   1.967   6.888   2.314 -1.5306  0.6410 -0.6884
   84DOPC   H3S11501   2.065   6.843   2.448 -0.0124  3.4374 -0.8647
   84DOPC   C2411502   1.854   6.914   2.502 -0.0197  0.0870  0.7199
   84DOPC   H4R11503   1.752   6.917   2.457 -1.0559 -0.9856  2.8289
   84DOPC   H4S11504   1.879   7.022   2.511  3.1428 -0.4991 -0.1565
   84DOPC   C2511505   1.858   6.843   2.637  0.2384 -0.0499  0.0280
   84DOPC   H5R11506   1.965   6.823   2.662  0.3172 -2.3396 -1.7116
   84DOPC   H5S11507   1.816   6.741   2.622  0.4593 -0.2420  0.6520
   84DOPC   C2611508   1.784   6.911   2.753  0.2347 -0.4250 -0.4942
   84DOPC   H6R11509   1.686   6.951   2.719 -1.4728 -1.1607  3.0918
   84DOPC   H6S11510   1.836   7.003   2.786 -0.2278 -0.0691 -0.7410
   84DOPC   C2711511   1.779   6.818   2.870  0.4136  0.4936 -0.2056
   84DOPC   H7R11512   1.884   6.785   2.885  0.3656  0.3650 -0.1466
   84DOPC   H7S11513   1.715   6.728   2.855 -0.4966  1.1157 -0.1653
   84DOPC   C2811514   1.747   6.878   3.018  0.2260 -0.2045  0.0496
   84DOPC   H8R11515   1.832   6.944   3.044 -1.3852  1.2384  2.0333
   84DOPC   H8S11516   1.741   6.794   3.089 -3.0741 -2.2368 -2.3150
   84DOPC   C2911517   1.618   6.957   3.027  0.4518 -0.3160  0.1478
   84DOPC   H9R11518   1.519   6.913   3.003  0.9401 -0.3410 -1.9956
   84DOPC  C21011519   1.619   7.086   3.079  0.0482 -0.3587  0.6684
   84DOPC  H10R11520   1.524   7.140   3.086  0.6499  0.8522 -0.2360
   84DOPC  C21111521   1.731   7.173   3.126  0.7879 -0.2388  0.0840
   84DOPC  H11R11522   1.831   7.125   3.122  1.0976  0.2704  1.4675
   84DOPC  H11S11523   1.717   7.204   3.231 -3.1940  4.5823 -1.4866
   84DOPC  C21211524   1.744   7.306   3.051  0.4666  0.6540 -1.2046
   84DOPC  H12R11525   1.849   7.332   3.078  1.0329 -0.6849 -1.9770
   84DOPC  H12S11526   1.672   7.382   3.088  0.8531  0.4828 -0.0549
   84DOPC  C21311527   1.747   7.307   2.892 -0.4068  0.3572  0.5689
   84DOPC  H13R11528   1.645   7.278   2.858 -0.4013  0.5300  0.4029
   84DOPC  H13S11529   1.819   7.233   2.851 -0.4686  1.0016 -0.7538
   84DOPC  C21411530   1.771   7.447   2.826 -0.0390  0.1585 -0.3549
   84DOPC  H14R11531   1.701   7.525   2.862 -0.5757  0.3952 -1.8321
   84DOPC  H14S11532   1.734   7.437   2.722  0.3160 -1.2173 -0.3697
   84DOPC  C21511533   1.910   7.507   2.820  0.8039 -0.4739  0.4812
   84DOPC  H15R11534   1.896   7.599   2.759  3.0425  0.1815  0.8598
   84DOPC  H15S11535   1.983   7.441   2.769  0.4653 -1.2858  1.0324
   84DOPC  C21611536   1.958   7.553   2.952  0.3795  0.0229 -0.2314
   84DOPC  H16R11537   2.007   7.465   2.999  1.4849  0.9372  0.3721
   84DOPC  H16S11538   1.873   7.576   3.019  1.7370 -0.4277  1.7392
   84DOPC  C21711539   2.074   7.658   2.966  0.1541  0.2593 -0.3179
   84DOPC  H17R11540   2.039   7.744   2.906  0.3954  0.7418  0.2271
   84DOPC  H17S11541   2.176   7.629   2.934  0.6338 -0.3920  1.6667
   84DOPC  C21811542   2.090   7.717   3.104 -0.4821  0.0017  0.1424
   84DOPC  H18R11543   2.170   7.656   3.151 -1.4026  0.9016  3.1459
   84DOPC  H18S11544   1.996   7.706   3.163 -0.9227  3.6323  0.3541
   84DOPC  H18T11545   2.111   7.826   3.101 -0.2052 -0.0741 -1.2067
   84DOPC   C3311546   1.565   6.454   2.628  0.6671 -0.9278  0.5888
   84DOPC   H3X11547   1.511   6.547   2.597 -1.8832 -2.4891  0.0564
   84DOPC   H3Y11548   1.664   6.480   2.670  0.3045 -0.2429  1.0433
   84DOPC   C3411549   1.482   6.396   2.744 -0.1876 -0.2819 -0.6182
   84DOPC   H4X11550   1.544   6.307   2.765  1.0107  0.3003 -1.5287
   84DOPC   H4Y11551   1.379   6.381   2.703 -0.7759  3.3104 -0.8246
   84DOPC   C3511552   1.489   6.496   2.860 -0.3473 -0.6314 -0.0038
   84DOPC   H5X11553   1.444   6.593   2.828  0.7234  0.0882  0.6001
   84DOPC   H5Y11554   1.594   6.522   2.886 -0.7525  1.1949 -0.0034
   84DOPC   C3611555   1.434   6.452   2.992  0.0125  0.1845  0.3069
   84DOPC   H6X11556   1.457   6.529   3.068 -1.9904  0.6022  0.5285
   84DOPC   H6Y11557   1.325   6.432   2.989 -0.4621  2.6099 -1.2969
   84DOPC   C3711558   1.496   6.325   3.044 -0.0120 -0.1824  0.6328
   84DOPC   H7X11559   1.456   6.240   2.985  2.5142 -2.9569  2.6516
   84DOPC   H7Y11560   1.606   6.338   3.037 -0.0823  0.1377  0.1124
   84DOPC   C3811561   1.461   6.297   3.194  0.4739 -0.1467 -0.9776
   84DOPC   H8X11562   1.519   6.371   3.253  1.6501 -2.3599  0.8065
   84DOPC   H8Y11563   1.508   6.196   3.200 -0.8249 -0.6888  0.6204
   84DOPC   C3911564   1.315   6.297   3.236  0.5100 -0.6662 -0.1324
   84DOPC   H9X11565   1.275   6.399   3.247  0.6893 -0.3930 -1.6874
   84DOPC  C31011566   1.226   6.200   3.258 -0.4035 -0.1045  0.1095
   84DOPC  H10X11567   1.127   6.228   3.295 -0.7812  1.0798 -1.6515
   84DOPC  C31111568   1.255   6.055   3.237  0.5480  0.2437 -0.2414
   84DOPC  H11X11569   1.354   6.026   3.278 -0.2052 -1.5845  0.3772
   84DOPC  H11Y11570   1.259   6.039   3.128  1.1199  0.9257 -0.3319
   84DOPC  C31211571   1.170   5.937   3.302  0.0009 -0.3011  0.8729
   84DOPC  H12X11572   1.215   5.842   3.268  0.6283  0.7035 -1.2822
   84DOPC  H12Y11573   1.067   5.942   3.261 -0.4607 -1.2547  1.8849
   84DOPC  C31311574   1.176   5.938   3.456  0.0486 -0.2562  0.3858
   84DOPC  H13X11575   1.276   5.927   3.501  0.1276  0.8628  0.5123
   84DOPC  H13Y11576   1.126   6.032   3.488 -0.0655 -0.4328  0.7323
   84DOPC  C31411577   1.082   5.826   3.512  0.4302 -0.1455  0.2262
   84DOPC  H14X11578   1.093   5.827   3.622  0.5987  1.0980  0.2180
   84DOPC  H14Y11579   0.981   5.859   3.481  0.4770  0.0920  0.3181
   84DOPC  C31511580   1.111   5.681   3.457 -0.4270 -0.3120  0.5408
   84DOPC  H15X11581   1.220   5.668   3.468 -0.2375  1.6136  1.3861
   84DOPC  H15Y11582   1.092   5.674   3.348 -2.7231  0.3071  0.8351
   84DOPC  C31611583   1.041   5.565   3.524 -0.4276  0.7826 -0.9023
   84DOPC  H16X11584   1.108   5.476   3.521  1.4231  2.0634  0.4264
   84DOPC  H16Y11585   1.041   5.589   3.632 -0.2179 -1.8889 -0.2463
   84DOPC  C31711586   0.900   5.520   3.477 -0.2865  0.0925 -0.0055
   84DOPC  H17X11587   0.897   5.546   3.369 -2.0598  0.1209  0.0283
   84DOPC  H17Y11588   0.890   5.411   3.496  4.1141 -0.3553  0.7597
   84DOPC  C31811589   0.777   5.585   3.543  0.2258 -0.1403  0.4173
   84DOPC  H18X11590   0.684   5.535   3.508  0.1988  0.9755 -1.2219
   84DOPC  H18Y11591   0.785   5.577   3.654  3.7420  1.9328  0.4554
   84DOPC  H18Z11592   0.766   5.693   3.518  1.1022 -0.1147  0.1111
   85DOPC     N11593   5.190   4.662   1.922  0.2002 -0.5671 -0.0946
   85DOPC   C1211594   5.294   4.748   1.992  0.0726  0.2067  0.0128
   85DOPC  H12A11595   5.325   4.693   2.080  0.2159 -0.0712 -0.2099
   85DOPC  H12B11596   5.241   4.836   2.025 -1.4677 -0.2114 -1.2664
   85DOPC   C1311597   5.259   4.536   1.879 -0.1246  0.2134  0.7815
   85DOPC  H13A11598   5.299   4.476   1.959 -0.3074 -0.4262  0.4033
   85DOPC  H13B11599   5.190   4.467   1.832  1.3923 -1.1241  0.4341
   85DOPC  H13C11600   5.338   4.567   1.813 -0.4094  0.6645  0.6505
   85DOPC   C1411601   5.133   4.732   1.796  0.3594  0.9352  0.1184
   85DOPC  H14A11602   5.089   4.660   1.728 -0.9401  2.4336 -0.6807
   85DOPC  H14B11603   5.049   4.795   1.818 -2.1308 -2.0247 -0.2813
   85DOPC  H14C11604   5.212   4.783   1.742  2.8639 -0.2902  2.3572
   85DOPC   C1511605   5.089   4.627   2.016  0.5687 -0.0037  0.5190
   85DOPC  H15A11606   5.019   4.557   1.973 -1.9199  1.7218  1.5098
   85DOPC  H15B11607   5.026   4.710   2.043 -1.1869 -1.2535  0.4290
   85DOPC  H15C11608   5.135   4.589   2.106 -0.7125  0.5721  1.4425
   85DOPC   C1111609   5.422   4.795   1.920 -0.0653 -0.5185 -0.2374
   85DOPC  H11A11610   5.490   4.838   1.997 -0.0506 -0.5191 -0.2503
   85DOPC  H11B11611   5.482   4.710   1.883  0.5227 -0.8718  1.4543
   85DOPC     P11612   5.361   5.037   1.841  0.2749  0.1230 -0.1263
   85DOPC   O1311613   5.239   5.084   1.768  0.4641 -0.1880 -0.2070
   85DOPC   O1411614   5.482   5.105   1.801 -0.2079 -0.4383  0.2161
   85DOPC   O1211615   5.392   4.888   1.812 -0.1202  0.0720 -0.2236
   85DOPC   O1111616   5.337   5.039   1.994 -0.7859 -0.3204 -0.0519
   85DOPC    C111617   5.428   5.067   2.100 -0.1426 -0.0405  0.5347
   85DOPC    HA11618   5.431   5.178   2.112 -0.1163  0.0184 -0.0067
   85DOPC    HB11619   5.534   5.045   2.074  0.4403  2.9060  0.0168
   85DOPC    C211620   5.383   5.004   2.230 -0.3123  0.7306 -1.6247
   85DOPC    HS11621   5.386   4.893   2.226  0.5495  0.7066 -0.6236
   85DOPC   O2111622   5.258   5.063   2.259  0.4958  0.2460  0.5854
   85DOPC   C2111623   5.162   4.980   2.294 -0.2480 -0.8568 -0.4843
   85DOPC   O2211624   5.180   4.858   2.306 -0.2385 -0.7908 -0.4249
   85DOPC   C2211625   5.032   5.053   2.326  0.2705 -0.4487  0.5596
   85DOPC   H2R11626   4.986   5.090   2.232 -1.0087  3.2073  2.4364
   85DOPC   H2S11627   5.045   5.144   2.388  1.6921 -1.1918  1.4019
   85DOPC    C311628   5.472   5.034   2.355 -0.0952 -0.4589 -0.2194
   85DOPC    HX11629   5.490   5.143   2.345 -0.0291 -0.3668  0.7674
   85DOPC    HY11630   5.572   4.990   2.332 -0.7111 -2.0503  0.0231
   85DOPC   O3111631   5.415   5.006   2.483 -0.3638  0.1931 -0.3423
   85DOPC   C3111632   5.419   4.876   2.520  0.5663  0.2243  0.0556
   85DOPC   O3211633   5.467   4.786   2.453 -0.5395 -0.0342  0.3549
   85DOPC   C3211634   5.351   4.869   2.657 -0.0073 -0.3947 -0.2606
   85DOPC   H2X11635   5.266   4.941   2.652  2.0785  2.2115 -0.2730
   85DOPC   H2Y11636   5.312   4.766   2.671  0.8325 -1.0295 -2.2532
   85DOPC   C2311637   4.935   4.961   2.403 -0.3213 -0.6276 -0.0667
   85DOPC   H3R11638   4.918   4.876   2.333  0.6236  0.1642 -1.3097
   85DOPC   H3S11639   4.839   5.012   2.424  0.6573  1.6092 -0.7747
   85DOPC   C2411640   4.977   4.906   2.543 -0.1912 -0.4888  0.3930
   85DOPC   H4R11641   5.073   4.852   2.530 -0.3931 -0.7388 -0.0618
   85DOPC   H4S11642   4.894   4.850   2.590 -2.2001  0.3166 -1.9449
   85DOPC   C2511643   4.998   5.028   2.644  0.7188 -0.5283  0.2772
   85DOPC   H5R11644   4.913   5.099   2.636  0.7390 -0.4350  0.8393
   85DOPC   H5S11645   5.092   5.079   2.612  0.1514  1.0393  1.0146
   85DOPC   C2611646   5.028   4.978   2.791  0.1617  0.3344  0.4178
   85DOPC   H6R11647   5.114   4.908   2.787  2.8182  3.3814 -1.1527
   85DOPC   H6S11648   4.930   4.934   2.821  0.8612 -0.6420  1.3407
   85DOPC   C2711649   5.054   5.087   2.900  0.2120 -0.0360  0.0901
   85DOPC   H7R11650   5.145   5.141   2.864 -0.5727  0.9480 -0.4926
   85DOPC   H7S11651   5.078   5.042   2.998 -1.2946 -0.7270  0.1792
   85DOPC   C2811652   4.937   5.189   2.900  0.4517 -0.3509 -0.3869
   85DOPC   H8R11653   4.842   5.130   2.905  0.2032 -0.0554 -1.4021
   85DOPC   H8S11654   4.920   5.236   2.801 -1.1848  2.7712  1.2209
   85DOPC   C2911655   4.956   5.307   2.995  0.1161  0.3690  0.0228
   85DOPC   H9R11656   5.014   5.388   2.949 -0.5328 -0.5821 -2.6633
   85DOPC  C21011657   4.923   5.313   3.126 -0.3655  0.3639  0.6344
   85DOPC  H10R11658   4.948   5.398   3.192 -0.4893  0.2274  0.8560
   85DOPC  C21111659   4.850   5.204   3.185  0.4563  0.3168 -0.7949
   85DOPC  H11R11660   4.901   5.161   3.274 -2.2630 -1.2638  0.1535
   85DOPC  H11S11661   4.844   5.116   3.118  1.4035  0.8439 -1.5804
   85DOPC  C21211662   4.715   5.239   3.251  0.6709  0.7411  0.3441
   85DOPC  H12R11663   4.682   5.135   3.272  0.3967  0.9066  0.7513
   85DOPC  H12S11664   4.640   5.285   3.184  0.4840  1.0166  0.7380
   85DOPC  C21311665   4.724   5.322   3.377 -0.4366 -0.0614 -0.4861
   85DOPC  H13R11666   4.773   5.416   3.346  2.3658 -1.2766 -0.0982
   85DOPC  H13S11667   4.795   5.275   3.449 -2.5654  0.5893  2.2350
   85DOPC  C21411668   4.583   5.335   3.442  0.6609 -0.1835  0.7008
   85DOPC  H14R11669   4.563   5.236   3.487 -2.4912 -0.5588 -1.2349
   85DOPC  H14S11670   4.505   5.337   3.363  1.6999  2.0401 -0.3967
   85DOPC  C21511671   4.566   5.444   3.547 -0.1615 -0.0285 -0.3063
   85DOPC  H15R11672   4.574   5.543   3.497 -3.0605  0.6222  0.3345
   85DOPC  H15S11673   4.636   5.431   3.632 -0.5607  0.1740  0.0537
   85DOPC  C21611674   4.424   5.442   3.611  0.3563 -0.0919 -0.5232
   85DOPC  H16R11675   4.409   5.354   3.677  0.0954  1.7861  2.0743
   85DOPC  H16S11676   4.347   5.449   3.531  1.3201  0.2300 -1.4546
   85DOPC  C21711677   4.403   5.567   3.698  0.0120  0.6245  0.3463
   85DOPC  H17R11678   4.294   5.576   3.711 -0.1607 -3.0614  3.1821
   85DOPC  H17S11679   4.449   5.656   3.651  1.2895  0.8744  1.9719
   85DOPC  C21811680   4.484   5.563   3.822  0.8382 -0.0256  0.5097
   85DOPC  H18R11681   4.586   5.608   3.815  1.3776 -0.8229  2.4622
   85DOPC  H18S11682   4.512   5.460   3.856  0.6707  0.2297  1.4540
   85DOPC  H18T11683   4.440   5.611   3.912 -0.7536  1.8942 -1.1964
   85DOPC   C3311684   5.437   4.918   2.776  0.0994 -0.0847  0.1083
   85DOPC   H3X11685   5.383   5.001   2.827 -0.4659  0.9574 -2.0474
   85DOPC   H3Y11686   5.536   4.958   2.748  0.0874  0.3854  0.7160
   85DOPC   C3411687   5.450   4.803   2.877  0.5119 -0.8658  0.4450
   85DOPC   H4X11688   5.467   4.710   2.818  1.7812  0.8753 -2.1428
   85DOPC   H4Y11689   5.354   4.785   2.930 -0.0538 -2.0966 -0.9120
   85DOPC   C3511690   5.554   4.835   2.984  0.0417 -0.0000  0.4983
   85DOPC   H5X11691   5.542   4.939   3.021 -1.5612  0.2075 -0.4941
   85DOPC   H5Y11692   5.655   4.819   2.940  0.4641  3.7403 -0.2430
   85DOPC   C3611693   5.540   4.742   3.114  0.4500 -0.1670  0.5998
   85DOPC   H6X11694   5.442   4.755   3.165  0.2209 -1.2743  0.4654
   85DOPC   H6Y11695   5.536   4.634   3.088 -0.9834 -0.1716  0.7571
   85DOPC   C3711696   5.643   4.764   3.225 -0.2037  0.3230 -0.0298
   85DOPC   H7X11697   5.608   4.861   3.267 -1.5641  1.1893 -2.9326
   85DOPC   H7Y11698   5.629   4.678   3.293 -2.3238 -0.9979 -2.0111
   85DOPC   C3811699   5.794   4.776   3.178 -0.0375  0.0085 -0.0662
   85DOPC   H8X11700   5.795   4.876   3.131 -2.4641 -0.2433 -0.7506
   85DOPC   H8Y11701   5.812   4.702   3.098 -0.8073 -0.0963 -0.1502
   85DOPC   C3911702   5.891   4.750   3.290 -0.1340  0.6897  0.0131
   85DOPC   H9X11703   5.911   4.644   3.314  0.4080  0.5747 -0.9139
   85DOPC  C31011704   5.930   4.841   3.382 -0.3255 -0.2799 -0.0401
   85DOPC  H10X11705   5.984   4.804   3.470  1.0659  2.6213  0.4394
   85DOPC  C31111706   5.897   4.987   3.374 -0.3862  0.6402  0.9027
   85DOPC  H11X11707   5.793   5.002   3.412 -0.9361 -1.0706  0.1787
   85DOPC  H11Y11708   5.908   5.027   3.271 -0.6233  1.2342  1.1001
   85DOPC  C31211709   5.986   5.076   3.463  0.4442  0.1152  0.2183
   85DOPC  H12X11710   5.957   5.178   3.428  1.3469  0.3925  0.2553
   85DOPC  H12Y11711   6.095   5.068   3.446  0.4593 -0.0995  0.4132
   85DOPC  C31311712   5.958   5.068   3.618 -0.2242  0.3349  0.3267
   85DOPC  H13X11713   5.977   4.963   3.649 -1.9942 -0.6787 -1.6984
   85DOPC  H13Y11714   6.015   5.140   3.681 -1.9698  0.3146  2.0225
   85DOPC  C31411715   5.814   5.101   3.663  1.1460  0.1836 -0.4720
   85DOPC  H14X11716   5.778   5.189   3.605  2.7407  0.5500 -0.9606
   85DOPC  H14Y11717   5.750   5.014   3.638 -0.8384  1.1851  0.8738
   85DOPC  C31511718   5.804   5.116   3.812  0.0772 -0.2205  0.1881
   85DOPC  H15X11719   5.886   5.182   3.846  0.8252 -1.6709  1.3337
   85DOPC  H15Y11720   5.823   5.017   3.859 -1.8549  0.0817  1.7122
   85DOPC  C31611721   5.666   5.154   3.869  0.5486  0.1651  0.0838
   85DOPC  H16X11722   5.643   5.262   3.881 -0.6022 -0.1706  1.0540
   85DOPC  H16Y11723   5.584   5.107   3.810  1.8325  0.2030 -1.8304
   85DOPC  C31711724   5.645   5.106   4.013  0.5566  1.2300 -0.2889
   85DOPC  H17X11725   5.547   5.146   4.044  1.2628  0.8906  2.6088
   85DOPC  H17Y11726   5.636   4.995   4.007  2.3271  1.1266 -2.3347
   85DOPC  C31811727   5.748   5.137   4.117 -1.0155  0.1180  0.3119
   85DOPC  H18X11728   5.826   5.058   4.125  0.4505  1.5077  0.1319
   85DOPC  H18Y11729   5.791   5.234   4.085  2.8805 -1.4743  0.1614
   85DOPC  H18Z11730   5.704   5.138   4.219 -0.9698 -3.0043  0.4672
   86DOPC     N11731   1.018   6.292   2.007 -0.2339 -0.3289  0.0569
   86DOPC   C1211732   1.146   6.376   1.978 -0.6294 -0.1743 -0.2847
   86DOPC  H12A11733   1.143   6.436   2.068  1.1040 -2.6225  1.5731
   86DOPC  H12B11734   1.112   6.435   1.895 -1.2723 -1.3191 -0.8706
   86DOPC   C1311735   0.984   6.197   1.892  0.3428  0.0829  0.6808
   86DOPC  H13A11736   0.965   6.262   1.808 -0.5372  1.1543  1.6718
   86DOPC  H13B11737   1.075   6.144   1.867  0.2865  0.3149 -0.0473
   86DOPC  H13C11738   0.908   6.122   1.909 -0.4880 -0.1067 -2.9510
   86DOPC   C1411739   0.903   6.394   2.027 -0.9433  0.5240  0.1728
   86DOPC  H14A11740   0.810   6.339   2.035 -0.3250 -0.6596 -0.4575
   86DOPC  H14B11741   0.929   6.450   2.115 -1.7774  0.2818  0.5832
   86DOPC  H14C11742   0.890   6.455   1.939 -0.1256 -0.3928 -0.6127
   86DOPC   C1511743   1.034   6.207   2.126  0.5937  0.3349 -0.2474
   86DOPC  H15A11744   1.109   6.136   2.095  1.2149  0.6055  0.5994
   86DOPC  H15B11745   0.945   6.155   2.158  0.1105  2.8155  3.0428
   86DOPC  H15C11746   1.069   6.264   2.211  0.9454 -0.8811  0.4394
   86DOPC   C1111747   1.277   6.304   1.950  0.4547  0.7520  0.0479
   86DOPC  H11A11748   1.354   6.385   1.951  0.2360  1.0577  3.1614
   86DOPC  H11B11749   1.296   6.243   2.041  1.7198 -1.0085 -1.3264
   86DOPC     P11750   1.318   6.083   1.801 -0.0769  0.0085  0.0684
   86DOPC   O1311751   1.459   6.060   1.761  0.4129  0.4721  0.0153
   86DOPC   O1411752   1.224   6.038   1.702  0.4109  0.3054 -0.6986
   86DOPC   O1211753   1.283   6.240   1.822 -0.3113  0.3070  0.4967
   86DOPC   O1111754   1.299   6.021   1.946 -0.2662 -0.1271 -0.1394
   86DOPC    C111755   1.207   5.914   1.964 -0.5510 -0.2390  0.3580
   86DOPC    HA11756   1.220   5.841   1.881 -0.2411  1.8562 -1.5455
   86DOPC    HB11757   1.101   5.947   1.964 -0.7526 -0.8692 -0.2049
   86DOPC    C211758   1.246   5.832   2.091  0.4725  0.1158  0.2528
   86DOPC    HS11759   1.196   5.735   2.069 -1.0508  1.0974 -0.8068
   86DOPC   O2111760   1.187   5.903   2.211  0.4567  0.1657  0.3700
   86DOPC   C2111761   1.061   5.866   2.241 -0.5309  0.1445 -0.1941
   86DOPC   O2211762   0.996   5.782   2.184  0.3138 -0.4703  0.3868
   86DOPC   C2211763   1.030   5.914   2.379  0.1197 -0.2181  0.3471
   86DOPC   H2R11764   1.067   6.019   2.384 -1.7328  0.7091 -2.6790
   86DOPC   H2S11765   1.094   5.850   2.444 -0.4444 -1.6521 -0.4654
   86DOPC    C311766   1.395   5.804   2.109  0.0922  0.3970 -0.8933
   86DOPC    HX11767   1.456   5.894   2.086  0.9468  0.0655  0.0198
   86DOPC    HY11768   1.426   5.715   2.049 -0.0123  0.3683 -0.9052
   86DOPC   O3111769   1.418   5.764   2.244  0.1505  0.3401 -0.3153
   86DOPC   C3111770   1.526   5.814   2.312 -0.0238 -0.2049  0.2051
   86DOPC   O3211771   1.601   5.899   2.263  0.7247 -0.0534 -0.1070
   86DOPC   C3211772   1.539   5.746   2.454  0.0950 -0.3619 -0.1940
   86DOPC   H2X11773   1.555   5.638   2.433  2.4324 -0.2408  0.7167
   86DOPC   H2Y11774   1.626   5.788   2.508 -1.6710  0.9268  1.8422
   86DOPC   C2311775   0.883   5.900   2.418 -0.8190  0.4918 -0.4514
   86DOPC   H3R11776   0.836   5.807   2.381 -1.4581  0.4630  0.4020
   86DOPC   H3S11777   0.825   5.984   2.374  1.1945  1.7979 -0.7575
   86DOPC   C2411778   0.854   5.890   2.569 -0.2620  0.4329  0.3140
   86DOPC   H4R11779   0.864   5.995   2.605  0.3618  2.0222 -3.9209
   86DOPC   H4S11780   0.923   5.819   2.618  1.6123  2.0603  0.1679
   86DOPC   C2511781   0.706   5.848   2.587 -0.3603 -0.7995  0.0739
   86DOPC   H5R11782   0.700   5.744   2.546 -0.0615 -0.3352 -1.2123
   86DOPC   H5S11783   0.643   5.906   2.516 -1.3491 -0.1882  1.4056
   86DOPC   C2611784   0.666   5.859   2.731  0.5682  0.4287 -0.3711
   86DOPC   H6R11785   0.567   5.809   2.739  0.6343  0.3324 -0.1417
   86DOPC   H6S11786   0.662   5.966   2.761 -1.1202  0.9125 -2.0880
   86DOPC   C2711787   0.750   5.775   2.833 -1.3205  0.1312 -0.2058
   86DOPC   H7R11788   0.858   5.800   2.843 -0.8755 -1.8768  0.4999
   86DOPC   H7S11789   0.742   5.667   2.808  1.3455 -0.0854 -0.4304
   86DOPC   C2811790   0.701   5.796   2.979  0.2251  0.5338 -0.3801
   86DOPC   H8R11791   0.695   5.906   2.997 -3.0340  0.2045  1.3591
   86DOPC   H8S11792   0.777   5.747   3.044  0.0725  2.3188  1.2170
   86DOPC   C2911793   0.560   5.750   3.001 -0.7945 -0.2668 -0.5475
   86DOPC   H9R11794   0.494   5.771   2.915 -0.4327  4.0875 -0.0286
   86DOPC  C21011795   0.513   5.712   3.116  0.2764 -0.6116  0.3239
   86DOPC  H10R11796   0.405   5.690   3.117 -0.0908  1.0346  0.4900
   86DOPC  C21111797   0.575   5.706   3.253 -0.3992 -0.1107  0.7975
   86DOPC  H11R11798   0.677   5.749   3.252  0.3401 -1.8220  0.8673
   86DOPC  H11S11799   0.589   5.599   3.279 -1.4131 -0.5401 -0.3316
   86DOPC  C21211800   0.501   5.796   3.365 -0.7521 -0.6850 -0.3524
   86DOPC  H12R11801   0.542   5.776   3.466 -0.8622  2.7813  0.5093
   86DOPC  H12S11802   0.391   5.776   3.362 -1.2714  1.9887 -2.4294
   86DOPC  C21311803   0.514   5.954   3.360 -0.0480  0.2804  0.0160
   86DOPC  H13R11804   0.447   5.998   3.438 -0.9039  0.9561 -1.0741
   86DOPC  H13S11805   0.465   5.991   3.268 -0.4088  0.6830  0.3611
   86DOPC  C21411806   0.650   6.020   3.356  0.0012 -0.0540 -0.6970
   86DOPC  H14R11807   0.716   5.969   3.282  0.3644 -2.6471  1.2624
   86DOPC  H14S11808   0.698   6.012   3.456  0.4645  1.1334 -0.8108
   86DOPC  C21511809   0.643   6.169   3.313 -0.1841  1.0846 -0.1435
   86DOPC  H15R11810   0.551   6.212   3.358 -0.5328 -0.2647  0.4720
   86DOPC  H15S11811   0.632   6.185   3.204  1.1556  0.8003 -0.3357
   86DOPC  C21611812   0.760   6.259   3.355 -0.0629  0.5542 -0.1772
   86DOPC  H16R11813   0.855   6.225   3.310  1.0419  0.4279  2.1148
   86DOPC  H16S11814   0.783   6.234   3.461  2.2688  0.4248 -0.6635
   86DOPC  C21711815   0.737   6.406   3.329 -0.3278 -0.4542  0.0980
   86DOPC  H17R11816   0.677   6.417   3.236  0.8506  2.8001 -0.3831
   86DOPC  H17S11817   0.830   6.462   3.309 -0.8631  1.2646  2.0706
   86DOPC  C21811818   0.680   6.487   3.437  0.2459  0.0081 -0.5261
   86DOPC  H18R11819   0.592   6.429   3.474  1.2176 -0.6367  0.8596
   86DOPC  H18S11820   0.653   6.586   3.395 -0.5148 -0.4914 -1.2442
   86DOPC  H18T11821   0.759   6.499   3.514  0.1807  0.6935 -0.5567
   86DOPC   C3311822   1.421   5.772   2.552  0.4082  1.0309  0.4866
   86DOPC   H3X11823   1.449   5.719   2.645 -0.6111 -0.0966  0.1827
   86DOPC   H3Y11824   1.332   5.714   2.519  0.8043  0.5728  0.2049
   86DOPC   C3411825   1.398   5.917   2.583 -0.3139  0.4106 -0.2961
   86DOPC   H4X11826   1.363   5.959   2.486  1.8830 -2.5997 -2.5637
   86DOPC   H4Y11827   1.485   5.980   2.611 -1.7733  1.9351  1.0173
   86DOPC   C3511828   1.292   5.939   2.692 -0.3633 -0.4648 -0.1150
   86DOPC   H5X11829   1.204   5.877   2.665 -1.8526  1.5266 -0.1263
   86DOPC   H5Y11830   1.329   5.898   2.788 -2.3649 -2.1764 -0.0072
   86DOPC   C3611831   1.248   6.078   2.720  0.2630 -0.7904  0.2796
   86DOPC   H6X11832   1.330   6.141   2.761  0.5843 -1.7705  1.1852
   86DOPC   H6Y11833   1.210   6.128   2.628 -0.1240 -0.2400  0.7372
   86DOPC   C3711834   1.129   6.060   2.814 -0.2303  0.4372 -0.0122
   86DOPC   H7X11835   1.055   5.989   2.771 -0.3069  1.3421 -1.4417
   86DOPC   H7Y11836   1.163   6.010   2.907 -0.6883  0.9662  0.4488
   86DOPC   C3811837   1.083   6.202   2.847  0.5569  0.4537 -0.2213
   86DOPC   H8X11838   1.043   6.255   2.758  0.0171 -0.3009 -0.4367
   86DOPC   H8Y11839   1.168   6.261   2.890  1.1667 -0.9096  0.5148
   86DOPC   C3911840   0.977   6.188   2.951 -0.3925 -0.3533 -0.8294
   86DOPC   H9X11841   0.970   6.088   2.997 -1.4015  0.5666  1.1487
   86DOPC  C31011842   0.895   6.285   3.006  0.2783 -0.2310 -0.1209
   86DOPC  H10X11843   0.819   6.252   3.078  1.7326 -0.7395  1.2308
   86DOPC  C31111844   0.886   6.433   2.974 -0.2168  0.1189  0.1950
   86DOPC  H11X11845   0.982   6.479   2.942  1.2043 -2.4838  0.4062
   86DOPC  H11Y11846   0.868   6.483   3.072  1.8144  0.6018  0.3629
   86DOPC  C31211847   0.776   6.466   2.873 -0.1537  0.1034 -0.7020
   86DOPC  H12X11848   0.788   6.415   2.775 -1.7564  1.3286 -1.5793
   86DOPC  H12Y11849   0.769   6.577   2.866  1.6899  0.2425 -0.7440
   86DOPC  C31311850   0.632   6.421   2.921  0.5088 -0.7508 -0.7375
   86DOPC  H13X11851   0.618   6.312   2.932 -3.0644 -0.5940 -2.2524
   86DOPC  H13Y11852   0.605   6.474   3.015  0.1341  0.6666 -1.6008
   86DOPC  C31411853   0.513   6.469   2.823 -0.4061  0.4335  0.6558
   86DOPC  H14X11854   0.562   6.454   2.724  1.1870  0.7596  1.3581
   86DOPC  H14Y11855   0.433   6.394   2.843  0.3094 -0.3653  0.6236
   86DOPC  C31511856   0.455   6.603   2.838  0.5573 -0.5322 -0.2439
   86DOPC  H15X11857   0.532   6.683   2.831 -0.6675  1.3246  3.9588
   86DOPC  H15Y11858   0.399   6.619   2.933  2.0289 -1.1313  0.7833
   86DOPC  C31611859   0.356   6.634   2.724  0.4677  0.3995 -0.0610
   86DOPC  H16X11860   0.410   6.648   2.628  1.4098  0.9526  0.5373
   86DOPC  H16Y11861   0.283   6.550   2.723  0.9190 -0.0448  1.4515
   86DOPC  C31711862   0.271   6.763   2.745 -0.4433  0.6443 -0.3855
   86DOPC  H17X11863   0.340   6.840   2.787 -1.8674  0.7624  1.8710
   86DOPC  H17Y11864   0.239   6.797   2.644 -1.2417 -1.7206 -0.9779
   86DOPC  C31811865   0.153   6.733   2.835  0.2920  0.6927 -0.2658
   86DOPC  H18X11866   0.088   6.817   2.868 -2.2525 -0.4222 -2.1061
   86DOPC  H18Y11867   0.083   6.670   2.777 -0.4970  0.8277  0.5109
   86DOPC  H18Z11868   0.187   6.673   2.922 -0.2552  1.7052  0.6823
   87DOPC     N11869   4.571   3.337   1.513  0.1022  0.0958  0.0627
   87DOPC   C1211870   4.512   3.379   1.652  0.7753  0.1294 -0.2647
   87DOPC  H12A11871   4.555   3.311   1.724  1.0775  1.8911  1.3045
   87DOPC  H12B11872   4.405   3.365   1.659  0.8311 -0.0384  0.2682
   87DOPC   C1311873   4.536   3.189   1.481 -0.4305  0.1888  0.5686
   87DOPC  H13A11874   4.589   3.162   1.391  0.2072 -0.1489  1.0302
   87DOPC  H13B11875   4.566   3.129   1.566  0.0999  0.5313  0.6338
   87DOPC  H13C11876   4.430   3.180   1.465 -0.2270 -1.4627 -0.0711
   87DOPC   C1411877   4.712   3.356   1.517 -0.0408 -0.3448 -0.4597
   87DOPC  H14A11878   4.755   3.295   1.596 -0.3219  1.3875  1.1049
   87DOPC  H14B11879   4.765   3.339   1.425 -1.1661 -2.1718 -0.8139
   87DOPC  H14C11880   4.739   3.455   1.550 -0.3437  0.2816 -2.0226
   87DOPC   C1511881   4.516   3.421   1.404  0.1896  0.1403  1.0011
   87DOPC  H15A11882   4.545   3.523   1.425 -0.5280  0.6447 -0.3302
   87DOPC  H15B11883   4.408   3.430   1.397  0.3985  2.0963 -0.9507
   87DOPC  H15C11884   4.549   3.402   1.303 -0.1731  0.4889  0.8158
   87DOPC   C1111885   4.544   3.520   1.713  0.7479 -0.0975  0.0504
   87DOPC  H11A11886   4.504   3.520   1.817  1.3301 -0.7905  0.2811
   87DOPC  H11B11887   4.653   3.540   1.713  0.6748  0.4227 -1.8630
   87DOPC     P11888   4.360   3.691   1.644  0.1800 -0.0405  0.5420
   87DOPC   O1311889   4.258   3.599   1.693  0.3878  0.3499  0.3485
   87DOPC   O1411890   4.332   3.758   1.516  0.2956 -0.1812  0.0607
   87DOPC   O1211891   4.494   3.614   1.623  0.3274  0.6457 -0.4197
   87DOPC   O1111892   4.386   3.789   1.770  0.1332 -0.5074 -0.3573
   87DOPC    C111893   4.341   3.924   1.739 -0.3181  0.1376 -0.4686
   87DOPC    HA11894   4.236   3.929   1.703 -1.1355  0.4617  1.7736
   87DOPC    HB11895   4.405   3.978   1.667  0.0727  0.9089  0.4288
   87DOPC    C211896   4.354   4.001   1.873 -0.2887  0.1606  0.3728
   87DOPC    HS11897   4.455   4.045   1.889 -0.2302 -0.1328  0.8573
   87DOPC   O2111898   4.311   3.921   1.986  0.5665  0.3624  0.1069
   87DOPC   C2111899   4.415   3.860   2.048  0.5588 -0.4371 -0.3558
   87DOPC   O2211900   4.531   3.891   2.025  0.0285  0.2686 -0.2961
   87DOPC   C2211901   4.376   3.767   2.156  0.5189  0.0852 -0.3683
   87DOPC   H2R11902   4.373   3.668   2.105  0.6497 -0.8566  1.3782
   87DOPC   H2S11903   4.269   3.778   2.182  0.0815 -0.2773 -1.9131
   87DOPC    C311904   4.268   4.132   1.872 -0.1599  0.0470  0.3795
   87DOPC    HX11905   4.165   4.096   1.889 -0.3804 -0.3821 -1.6716
   87DOPC    HY11906   4.268   4.168   1.767  1.8756 -2.8340 -0.7153
   87DOPC   O3111907   4.324   4.227   1.965 -0.0095  0.2451 -0.1587
   87DOPC   C3111908   4.232   4.268   2.059  0.0537 -0.3130  1.0023
   87DOPC   O3211909   4.119   4.223   2.073 -0.2233  0.1592  0.3112
   87DOPC   C3211910   4.295   4.377   2.141 -0.5952  0.4518  0.0405
   87DOPC   H2X11911   4.400   4.352   2.166 -0.7025  1.2423  1.3616
   87DOPC   H2Y11912   4.296   4.470   2.079 -0.0728 -0.3470 -1.1930
   87DOPC   C2311913   4.465   3.748   2.280  0.0971 -0.7942 -0.1851
   87DOPC   H3R11914   4.562   3.708   2.242  0.3490 -0.0832 -0.3192
   87DOPC   H3S11915   4.416   3.679   2.352 -0.6014  0.4758  0.6094
   87DOPC   C2411916   4.501   3.884   2.343  0.3672  0.3328  0.3660
   87DOPC   H4R11917   4.556   3.945   2.268  0.2799 -0.9879 -0.8295
   87DOPC   H4S11918   4.583   3.851   2.411  0.9868  1.3668  0.1305
   87DOPC   C2511919   4.390   3.944   2.422 -0.1638 -0.4950  0.4309
   87DOPC   H5R11920   4.337   3.862   2.475 -2.8442 -0.1616 -1.5229
   87DOPC   H5S11921   4.316   4.004   2.365  0.4541 -0.9175 -0.8810
   87DOPC   C2611922   4.448   4.035   2.526  0.1618 -0.5296 -0.8753
   87DOPC   H6R11923   4.384   4.126   2.537 -0.2453 -0.9627  0.5255
   87DOPC   H6S11924   4.546   4.077   2.494 -0.2113 -0.0205 -1.3739
   87DOPC   C2711925   4.459   3.970   2.666 -0.4572  0.0369 -0.4774
   87DOPC   H7R11926   4.540   3.895   2.667 -0.7699 -0.3257  0.7839
   87DOPC   H7S11927   4.363   3.916   2.683 -0.4100 -0.1357 -0.7621
   87DOPC   C2811928   4.508   4.067   2.774 -0.4261 -0.1750 -0.0341
   87DOPC   H8R11929   4.435   4.151   2.781  0.0533  0.2867 -0.4597
   87DOPC   H8S11930   4.601   4.114   2.735 -0.8705 -0.6195 -1.7121
   87DOPC   C2911931   4.532   4.010   2.909 -0.5064  0.0310  0.4113
   87DOPC   H9R11932   4.449   3.958   2.958  0.9395 -1.7264  1.0834
   87DOPC  C21011933   4.637   4.009   2.991 -0.4990 -0.3247 -0.2806
   87DOPC  H10R11934   4.629   3.946   3.081  0.2042  0.6388  0.4800
   87DOPC  C21111935   4.772   4.067   2.956  1.1092 -0.2370  0.2272
   87DOPC  H11R11936   4.764   4.126   2.862  0.3350 -0.5782  0.0667
   87DOPC  H11S11937   4.848   3.986   2.949  0.4073 -0.8362 -0.8224
   87DOPC  C21211938   4.816   4.180   3.058  0.1179  0.1295  0.1336
   87DOPC  H12R11939   4.724   4.235   3.085 -0.7680 -1.6302  0.8007
   87DOPC  H12S11940   4.881   4.245   2.996 -1.9123  1.8169 -0.3375
   87DOPC  C21311941   4.885   4.126   3.182  0.1156  0.9554  0.2877
   87DOPC  H13R11942   4.972   4.064   3.149 -1.4624 -1.7725  0.9381
   87DOPC  H13S11943   4.815   4.067   3.244 -1.1855 -0.2087 -2.1405
   87DOPC  C21411944   4.937   4.235   3.278 -0.4766  0.7140 -0.6339
   87DOPC  H14R11945   4.849   4.298   3.305  0.6182  1.9069  0.2842
   87DOPC  H14S11946   5.006   4.305   3.227 -0.1557  0.4002 -0.6295
   87DOPC  C21511947   4.999   4.167   3.408  0.5952  0.7929 -0.2301
   87DOPC  H15R11948   5.108   4.146   3.395  1.0099  2.0912  0.8751
   87DOPC  H15S11949   4.949   4.068   3.419  2.6189 -0.2204  0.5623
   87DOPC  C21611950   4.984   4.243   3.544  0.0633 -0.1398 -0.1571
   87DOPC  H16R11951   4.875   4.263   3.558 -0.0290 -1.3100  0.9679
   87DOPC  H16S11952   5.035   4.340   3.529 -0.0993  0.1431  1.0243
   87DOPC  C21711953   5.048   4.161   3.658 -0.4048 -0.1558  0.3242
   87DOPC  H17R11954   5.148   4.122   3.631  0.0933  1.8970 -1.0424
   87DOPC  H17S11955   4.984   4.072   3.678  0.9932 -1.5160 -1.0184
   87DOPC  C21811956   5.049   4.232   3.791 -0.7845 -0.4876  0.3292
   87DOPC  H18R11957   5.093   4.176   3.876  0.8435  1.3013  0.7246
   87DOPC  H18S11958   4.945   4.259   3.822 -1.1080  0.2455 -1.3103
   87DOPC  H18T11959   5.111   4.323   3.777 -1.4737 -0.2902 -1.6941
   87DOPC   C3311960   4.221   4.425   2.272 -0.3274  0.7582  0.8992
   87DOPC   H3X11961   4.111   4.421   2.254  0.0389 -1.2328 -1.2604
   87DOPC   H3Y11962   4.244   4.532   2.292 -2.2307  1.4830 -0.4989
   87DOPC   C3411963   4.260   4.334   2.383  0.3575  0.1696  0.4168
   87DOPC   H4X11964   4.369   4.321   2.398  0.7612  2.2000 -0.4935
   87DOPC   H4Y11965   4.219   4.237   2.346  0.9683 -0.8042  2.1528
   87DOPC   C3511966   4.168   4.338   2.512 -0.5737 -0.3573 -0.3882
   87DOPC   H5X11967   4.161   4.233   2.547  2.6230 -0.9320 -1.2097
   87DOPC   H5Y11968   4.065   4.371   2.484 -1.1716 -1.2703  0.6576
   87DOPC   C3611969   4.237   4.401   2.631  0.1641 -0.0833 -0.1918
   87DOPC   H6X11970   4.325   4.336   2.650  1.6305  1.8255 -0.1487
   87DOPC   H6Y11971   4.277   4.502   2.607 -1.1597  0.1189 -1.6722
   87DOPC   C3711972   4.148   4.415   2.762 -0.1909  0.7236  0.1490
   87DOPC   H7X11973   4.054   4.471   2.747 -0.3318  0.2442 -0.8638
   87DOPC   H7Y11974   4.119   4.309   2.777  0.6030  0.4952  0.1095
   87DOPC   C3811975   4.230   4.479   2.876 -0.5607 -0.1972  0.0280
   87DOPC   H8X11976   4.243   4.587   2.858 -1.1536  0.2374  1.9819
   87DOPC   H8Y11977   4.330   4.430   2.877 -0.2889  0.3624  0.8969
   87DOPC   C3911978   4.159   4.474   3.010  0.7287  0.0522  0.4823
   87DOPC   H9X11979   4.077   4.542   3.037 -0.0933 -1.2741  1.4074
   87DOPC  C31011980   4.188   4.402   3.117 -0.4119 -0.6948  0.2419
   87DOPC  H10X11981   4.122   4.416   3.204  1.1306 -0.5079  1.4381
   87DOPC  C31111982   4.303   4.300   3.127 -0.7495 -0.4023 -0.0896
   87DOPC  H11X11983   4.382   4.305   3.050 -0.8350 -0.7073 -0.2022
   87DOPC  H11Y11984   4.262   4.198   3.106  2.3789 -2.3985  2.5069
   87DOPC  C31211985   4.351   4.282   3.276 -0.4901 -0.0593  0.5643
   87DOPC  H12X11986   4.447   4.225   3.272  0.2820  1.1880  0.5829
   87DOPC  H12Y11987   4.271   4.225   3.327 -1.4269  1.7707  1.2386
   87DOPC  C31311988   4.400   4.409   3.354 -0.0585  1.0527  0.6359
   87DOPC  H13X11989   4.479   4.453   3.289 -0.1728  1.0586  0.5003
   87DOPC  H13Y11990   4.325   4.491   3.358  1.3254  2.4605 -0.5809
   87DOPC  C31411991   4.457   4.383   3.493 -0.2237  0.8119 -0.3243
   87DOPC  H14X11992   4.368   4.349   3.550 -0.0105 -0.5749 -0.7788
   87DOPC  H14Y11993   4.527   4.296   3.493  1.5914  2.1912  0.9579
   87DOPC  C31511994   4.533   4.501   3.545 -0.4353  0.1270  0.4912
   87DOPC  H15X11995   4.457   4.580   3.561 -1.8379 -1.0230 -0.2002
   87DOPC  H15Y11996   4.599   4.538   3.464  0.2610  0.0672  1.0202
   87DOPC  C31611997   4.627   4.486   3.658 -0.4816 -0.3698  0.1177
   87DOPC  H16X11998   4.725   4.455   3.616 -0.2923  2.1385 -1.5690
   87DOPC  H16Y11999   4.646   4.586   3.702 -1.4838 -0.9179  1.8698
   87DOPC  C31712000   4.598   4.396   3.775  0.5908 -0.0887  1.0004
   87DOPC  H17X12001   4.582   4.298   3.724  1.9372  0.7808 -1.2493
   87DOPC  H17Y12002   4.696   4.388   3.826  1.9430 -1.0697 -1.5824
   87DOPC  C31812003   4.474   4.426   3.863  0.4059  0.2810 -0.5058
   87DOPC  H18X12004   4.450   4.342   3.931  0.3593  1.3272  0.8248
   87DOPC  H18Y12005   4.477   4.523   3.918 -2.7354  1.5264 -2.2086
   87DOPC  H18Z12006   4.383   4.435   3.799 -1.3078  1.8156  1.9425
   88DOPC     N12007   1.118   3.701   2.579 -0.1191  0.0503  0.1468
   88DOPC   C1212008   1.258   3.666   2.634  0.8994  0.3225  0.0298
   88DOPC  H12A12009   1.235   3.601   2.717 -1.1668  0.6596 -0.2156
   88DOPC  H12B12010   1.300   3.756   2.676 -1.7614  1.8454 -0.3336
   88DOPC   C1312011   1.131   3.812   2.476  0.7881 -0.1554  0.0351
   88DOPC  H13A12012   1.197   3.771   2.402 -0.2436 -0.3128 -0.8182
   88DOPC  H13B12013   1.034   3.812   2.428  0.4796  0.8934  0.6274
   88DOPC  H13C12014   1.150   3.910   2.517 -0.0557  0.2035 -0.3929
   88DOPC   C1412015   1.021   3.741   2.692  0.3832 -0.0012 -0.3154
   88DOPC  H14A12016   1.058   3.815   2.761  0.3557 -1.0126  0.8262
   88DOPC  H14B12017   0.931   3.772   2.641 -0.0082 -1.0660 -0.3101
   88DOPC  H14C12018   0.992   3.656   2.753  1.7963  0.3521  0.9057
   88DOPC   C1512019   1.056   3.588   2.504 -0.1359 -0.5333  0.3962
   88DOPC  H15A12020   0.962   3.626   2.466 -0.7925 -1.7332  0.7802
   88DOPC  H15B12021   1.030   3.507   2.571 -0.4771  0.1269  1.0751
   88DOPC  H15C12022   1.118   3.553   2.423 -0.5701 -1.6752  0.5345
   88DOPC   C1112023   1.363   3.589   2.547  0.1068 -0.0672 -0.7307
   88DOPC  H11A12024   1.448   3.550   2.607 -1.7423  0.0347  2.1406
   88DOPC  H11B12025   1.313   3.493   2.523  0.7998 -0.6377  0.0538
   88DOPC     P12026   1.519   3.765   2.453  0.2175  0.0099 -0.1186
   88DOPC   O1312027   1.467   3.891   2.408  0.2611 -0.2818  0.0025
   88DOPC   O1412028   1.625   3.700   2.373 -0.2419  0.0241 -0.3525
   88DOPC   O1212029   1.395   3.669   2.438 -0.5233  0.4474  0.0990
   88DOPC   O1112030   1.552   3.757   2.608 -0.5580 -0.1622  0.3610
   88DOPC    C112031   1.587   3.883   2.670 -0.2886 -0.0163  0.4842
   88DOPC    HA12032   1.508   3.961   2.662 -0.4725 -0.1915  0.5934
   88DOPC    HB12033   1.674   3.931   2.619 -1.3622  2.6992  1.0211
   88DOPC    C212034   1.637   3.866   2.810  0.6917 -0.7942 -0.4373
   88DOPC    HS12035   1.682   3.962   2.841 -1.9787  0.2002  0.6885
   88DOPC   O2112036   1.732   3.760   2.823 -0.2281 -0.4709  0.2588
   88DOPC   C2112037   1.844   3.779   2.754 -0.0175 -0.0094  0.9056
   88DOPC   O2212038   1.881   3.883   2.698 -0.0469 -0.4329  0.7838
   88DOPC   C2212039   1.938   3.656   2.765 -0.1620 -0.3788  0.1623
   88DOPC   H2R12040   1.926   3.593   2.674 -0.4449  0.6220 -0.5063
   88DOPC   H2S12041   1.903   3.589   2.847  1.3158 -3.0523 -1.2842
   88DOPC    C312042   1.504   3.839   2.899 -0.0078 -0.3502 -0.0054
   88DOPC    HX12043   1.438   3.757   2.863 -0.8194 -0.1239  0.9592
   88DOPC    HY12044   1.438   3.925   2.879  1.6938  0.9433 -0.2913
   88DOPC   O3112045   1.532   3.825   3.039  0.3084  0.2157 -0.3073
   88DOPC   C3112046   1.547   3.703   3.080  0.1879 -0.1215 -0.0909
   88DOPC   O3212047   1.536   3.597   3.021  0.3448 -1.0679  0.3604
   88DOPC   C3212048   1.576   3.717   3.232  0.6545 -0.4709 -0.5265
   88DOPC   H2X12049   1.650   3.798   3.250  0.3722 -0.4361  0.5078
   88DOPC   H2Y12050   1.481   3.759   3.270 -0.8475 -0.4468 -3.9719
   88DOPC   C2312051   2.083   3.693   2.765 -0.8815 -0.0186 -0.0473
   88DOPC   H3R12052   2.102   3.766   2.683 -1.0490  1.0582  0.8446
   88DOPC   H3S12053   2.141   3.602   2.740 -0.0369  0.5624 -0.2529
   88DOPC   C2412054   2.140   3.762   2.894  0.0429 -0.7890  0.0301
   88DOPC   H4R12055   2.245   3.789   2.869 -1.0801  2.5846 -1.6184
   88DOPC   H4S12056   2.129   3.684   2.973  0.0977 -1.7051 -0.8453
   88DOPC   C2512057   2.080   3.894   2.948  0.8769 -0.1822  0.0470
   88DOPC   H5R12058   1.973   3.875   2.970  0.3346  2.3759 -0.1263
   88DOPC   H5S12059   2.082   3.971   2.868 -2.3652 -0.0875 -0.0386
   88DOPC   C2612060   2.165   3.945   3.071  0.3064  0.2089 -0.0301
   88DOPC   H6R12061   2.123   4.041   3.107  1.6755  0.7882  0.0952
   88DOPC   H6S12062   2.268   3.964   3.034  0.4264  0.0689  0.2318
   88DOPC   C2712063   2.162   3.837   3.182 -0.8081 -0.3497  0.0111
   88DOPC   H7R12064   2.233   3.758   3.150  1.4900  1.6958 -0.1749
   88DOPC   H7S12065   2.057   3.801   3.193 -1.1102  0.5369  0.1095
   88DOPC   C2812066   2.220   3.895   3.317  0.2171  0.3012 -0.4777
   88DOPC   H8R12067   2.321   3.940   3.310 -0.2551  1.3009 -0.9293
   88DOPC   H8S12068   2.234   3.810   3.388  1.3305 -0.1532 -1.2071
   88DOPC   C2912069   2.114   3.987   3.375 -0.7285  0.5286 -0.5732
   88DOPC   H9R12070   2.009   3.952   3.371 -0.6402  0.2687 -0.6369
   88DOPC  C21012071   2.126   4.115   3.416 -0.5644 -0.3617 -0.6121
   88DOPC  H10R12072   2.037   4.170   3.447  0.8757  1.0429  1.3016
   88DOPC  C21112073   2.259   4.194   3.425 -0.1806  0.3500  0.6932
   88DOPC  H11R12074   2.345   4.128   3.444 -0.5229 -0.6111 -0.9081
   88DOPC  H11S12075   2.254   4.260   3.514  0.0273  1.0752  0.1815
   88DOPC  C21212076   2.279   4.281   3.301 -0.3358  0.5798  1.0945
   88DOPC  H12R12077   2.197   4.353   3.280  0.3785  1.1921  0.3710
   88DOPC  H12S12078   2.285   4.203   3.222  0.2800  1.4910  0.2162
   88DOPC  C21312079   2.408   4.361   3.314 -0.4292  0.3059  0.4996
   88DOPC  H13R12080   2.485   4.281   3.316  0.2628  0.9616  0.4606
   88DOPC  H13S12081   2.399   4.427   3.403 -1.7068  1.2182 -0.2766
   88DOPC  C21412082   2.428   4.454   3.197 -0.3902  0.8345  0.8575
   88DOPC  H14R12083   2.468   4.554   3.222 -0.7887  1.6171 -1.3358
   88DOPC  H14S12084   2.329   4.492   3.163 -0.0783  1.9064  1.1049
   88DOPC  C21512085   2.511   4.392   3.076 -0.1069  0.4769  0.0828
   88DOPC  H15R12086   2.447   4.327   3.012 -0.2549  1.0306 -0.3420
   88DOPC  H15S12087   2.588   4.324   3.117 -0.0507  1.0295  0.9216
   88DOPC  C21612088   2.571   4.501   2.984 -0.4401  0.2583 -0.2457
   88DOPC  H16R12089   2.651   4.549   3.044  0.6447 -0.2481 -1.2370
   88DOPC  H16S12090   2.499   4.575   2.946  0.3707 -0.1094 -2.6376
   88DOPC  C21712091   2.640   4.453   2.853 -0.1380 -0.0268  0.3164
   88DOPC  H17R12092   2.572   4.396   2.786 -0.2140 -0.7490  0.9871
   88DOPC  H17S12093   2.722   4.382   2.877  1.3093  0.9300 -1.5046
   88DOPC  C21812094   2.698   4.560   2.766 -0.1920 -0.4997  0.3372
   88DOPC  H18R12095   2.620   4.639   2.760  2.4841  2.4891  1.8184
   88DOPC  H18S12096   2.749   4.539   2.670 -1.2197 -0.8538 -0.1557
   88DOPC  H18T12097   2.776   4.608   2.827 -1.1685  1.1035  0.3638
   88DOPC   C3312098   1.626   3.587   3.295 -0.0778  0.7281 -0.4962
   88DOPC   H3X12099   1.555   3.502   3.291 -0.3172  0.9122 -0.2452
   88DOPC   H3Y12100   1.647   3.598   3.404 -0.9152 -0.0045 -0.2499
   88DOPC   C3412101   1.764   3.549   3.243 -0.3608  0.2237  0.2525
   88DOPC   H4X12102   1.827   3.639   3.258  0.0583 -0.1152  0.5457
   88DOPC   H4Y12103   1.759   3.545   3.132  0.9224  0.5773  0.1669
   88DOPC   C3512104   1.835   3.439   3.320 -0.1195  0.6627 -0.6772
   88DOPC   H5X12105   1.868   3.363   3.246  0.8535  1.3619 -0.9901
   88DOPC   H5Y12106   1.753   3.389   3.376 -0.5822  1.6777 -0.4301
   88DOPC   C3612107   1.952   3.473   3.414  0.3081  0.0132 -0.0777
   88DOPC   H6X12108   2.011   3.556   3.370 -0.2105 -0.0705 -0.9614
   88DOPC   H6Y12109   1.904   3.520   3.503  0.5365 -0.0281  0.0681
   88DOPC   C3712110   2.042   3.362   3.480  0.7601 -0.2272  0.2757
   88DOPC   H7X12111   1.977   3.277   3.511  2.1245 -1.2603  0.3903
   88DOPC   H7Y12112   2.108   3.326   3.398 -0.1199 -0.5835 -0.2984
   88DOPC   C3812113   2.126   3.397   3.604 -0.3401 -0.5300  0.4516
   88DOPC   H8X12114   2.203   3.317   3.613  2.1389  1.7902  1.0769
   88DOPC   H8Y12115   2.063   3.403   3.695 -0.7272  1.0816  0.1027
   88DOPC   C3912116   2.197   3.528   3.576 -0.0623 -0.1716  0.1519
   88DOPC   H9X12117   2.144   3.624   3.588 -0.6657 -0.5042  0.2101
   88DOPC  C31012118   2.311   3.537   3.504 -0.1377  0.0335 -0.7406
   88DOPC  H10X12119   2.362   3.634   3.506 -0.6044  0.2918 -1.2757
   88DOPC  C31112120   2.398   3.428   3.450 -0.4410  0.1523 -0.0393
   88DOPC  H11X12121   2.364   3.325   3.476  1.0320 -0.4303 -0.3298
   88DOPC  H11Y12122   2.501   3.436   3.489 -0.4645 -0.7935  0.2294
   88DOPC  C31212123   2.419   3.427   3.300  0.3487 -0.5421 -0.4647
   88DOPC  H12X12124   2.326   3.434   3.239  1.3662  0.1331 -2.0202
   88DOPC  H12Y12125   2.468   3.332   3.270  1.5469 -0.0203 -0.2254
   88DOPC  C31312126   2.514   3.540   3.258 -0.2454  0.2423  0.5008
   88DOPC  H13X12127   2.481   3.646   3.266 -0.5494  0.0323  2.7423
   88DOPC  H13Y12128   2.605   3.547   3.321 -0.4087  0.9794  0.6706
   88DOPC  C31412129   2.580   3.517   3.121  0.1513  0.5280  1.0097
   88DOPC  H14X12130   2.662   3.592   3.120 -0.0525  0.7468  0.5418
   88DOPC  H14Y12131   2.617   3.412   3.128  1.1337  0.3880 -3.6378
   88DOPC  C31512132   2.485   3.524   3.004  0.1479  0.6872  0.2382
   88DOPC  H15X12133   2.433   3.621   2.992 -2.7286 -0.9357 -1.7167
   88DOPC  H15Y12134   2.396   3.457   3.010  0.0231  0.6464 -1.6460
   88DOPC  C31612135   2.560   3.482   2.872 -0.0118 -0.5484 -0.4097
   88DOPC  H16X12136   2.507   3.517   2.781  1.8229  1.3667 -0.8433
   88DOPC  H16Y12137   2.654   3.542   2.873 -1.3652  1.6835 -0.3048
   88DOPC  C31712138   2.595   3.331   2.859  0.8305 -0.0717 -0.1104
   88DOPC  H17X12139   2.666   3.316   2.774 -0.0554  0.8180 -1.0444
   88DOPC  H17Y12140   2.656   3.306   2.948  0.4097 -1.3447 -0.1552
   88DOPC  C31812141   2.481   3.228   2.840 -0.1830  0.2259  0.1477
   88DOPC  H18X12142   2.398   3.232   2.914 -0.1107  1.7773  0.1804
   88DOPC  H18Y12143   2.445   3.233   2.735  0.0846 -0.4455  0.0175
   88DOPC  H18Z12144   2.534   3.131   2.849 -1.8693 -0.7828 -0.3545
   89DOPC     N12145   6.944   3.882   2.170  0.2162  0.4198 -0.3490
   89DOPC   C1212146   7.008   3.742   2.177 -0.4238  0.4206  0.6059
   89DOPC  H12A12147   6.950   3.671   2.233 -2.4363 -1.5740 -3.5574
   89DOPC  H12B12148   7.108   3.743   2.218  0.2718 -0.4681 -0.9721
   89DOPC   C1312149   6.803   3.879   2.116 -0.0300  0.3867 -0.9213
   89DOPC  H13A12150   6.751   3.973   2.104 -0.3187  0.3661  0.0850
   89DOPC  H13B12151   6.795   3.835   2.018  0.6256  0.7922 -1.1642
   89DOPC  H13C12152   6.743   3.820   2.183  0.3774  0.3400 -0.5946
   89DOPC   C1412153   7.022   3.969   2.079 -0.3578 -0.0383 -0.5188
   89DOPC  H14A12154   7.114   4.009   2.118  0.5166 -2.1166 -0.2900
   89DOPC  H14B12155   7.068   3.913   1.999  3.4307 -0.5541  1.7740
   89DOPC  H14C12156   6.963   4.051   2.043 -2.4780 -1.2259  0.0805
   89DOPC   C1512157   6.947   3.944   2.304  0.5612 -0.6911  0.2645
   89DOPC  H15A12158   7.048   3.947   2.342  0.2519  2.2343  1.0784
   89DOPC  H15B12159   6.892   3.884   2.375  1.0697  1.1548  2.3369
   89DOPC  H15C12160   6.893   4.037   2.301 -1.3182 -1.7635 -2.9221
   89DOPC   C1112161   7.021   3.674   2.030 -0.0926 -0.4112  0.0499
   89DOPC  H11A12162   6.922   3.685   1.981  0.2211  0.3041 -0.4445
   89DOPC  H11B12163   7.100   3.727   1.973 -0.8409 -0.1610 -0.7759
   89DOPC     P12164   6.944   3.438   2.101 -0.1876  0.0607  0.4666
   89DOPC   O1312165   7.003   3.298   2.110  0.4210 -0.0736  0.0677
   89DOPC   O1412166   6.834   3.457   2.000  0.0702 -0.1183  0.1351
   89DOPC   O1212167   7.055   3.539   2.051 -0.2175 -0.0273 -0.9410
   89DOPC   O1112168   6.899   3.498   2.240  0.6962  0.3627 -0.4770
   89DOPC    C112169   6.956   3.461   2.360 -0.9000  0.4726 -0.7046
   89DOPC    HA12170   6.945   3.538   2.439 -0.7444  1.4682 -1.6270
   89DOPC    HB12171   7.063   3.446   2.333 -0.8318 -0.8856  0.2430
   89DOPC    C212172   6.909   3.330   2.410  0.9681 -0.0146 -0.7730
   89DOPC    HS12173   6.942   3.252   2.339 -1.2859 -0.0814 -1.8236
   89DOPC   O2112174   6.766   3.334   2.421  0.1468 -0.6041  0.2312
   89DOPC   C2112175   6.705   3.217   2.438  0.4136  0.1688  0.2380
   89DOPC   O2212176   6.757   3.106   2.435 -0.4741 -0.1192 -0.3614
   89DOPC   C2212177   6.558   3.259   2.445  0.0712  0.4544 -0.0459
   89DOPC   H2R12178   6.529   3.238   2.340  2.5855 -0.4981 -0.6077
   89DOPC   H2S12179   6.542   3.369   2.454 -1.1300  0.6219 -3.1671
   89DOPC    C312180   6.970   3.301   2.552 -0.3600  0.5932  0.3560
   89DOPC    HX12181   7.076   3.283   2.526 -1.0921 -0.5441 -2.1573
   89DOPC    HY12182   6.929   3.205   2.591 -1.4792  1.3254  1.0295
   89DOPC   O3112183   6.972   3.412   2.638  0.3390 -0.3209  0.4227
   89DOPC   C3112184   6.868   3.416   2.715 -0.4776  0.3515  0.0425
   89DOPC   O3212185   6.776   3.338   2.709  0.4127 -0.8440 -0.1946
   89DOPC   C3212186   6.866   3.548   2.796  0.0357 -0.7508  0.9914
   89DOPC   H2X12187   6.965   3.597   2.781 -0.5939 -0.1821 -1.9503
   89DOPC   H2Y12188   6.796   3.624   2.754  1.5196 -0.2553 -0.7093
   89DOPC   C2312189   6.481   3.175   2.546  0.8408  0.8063  0.1483
   89DOPC   H3R12190   6.387   3.227   2.571 -1.3325 -1.8226 -1.8470
   89DOPC   H3S12191   6.548   3.165   2.635  1.6910 -0.0935 -0.5676
   89DOPC   C2412192   6.454   3.032   2.501  0.5372  0.1011  0.3462
   89DOPC   H4R12193   6.548   2.973   2.500 -0.0753 -0.9632 -2.1280
   89DOPC   H4S12194   6.403   3.036   2.403  1.0831  2.5024  0.1094
   89DOPC   C2512195   6.343   2.962   2.592 -0.3048  0.6613 -0.4578
   89DOPC   H5R12196   6.361   2.853   2.591  2.5610  0.9569  2.3210
   89DOPC   H5S12197   6.239   2.989   2.563  0.0762  0.8767 -1.6861
   89DOPC   C2612198   6.346   2.997   2.743 -0.4425 -1.0433  0.0248
   89DOPC   H6R12199   6.319   3.104   2.759  0.5888 -0.8020  0.1982
   89DOPC   H6S12200   6.436   2.971   2.802 -1.2889 -2.1503  0.8864
   89DOPC   C2712201   6.236   2.915   2.829 -0.1214  0.0511 -0.2919
   89DOPC   H7R12202   6.240   2.816   2.780  2.2415  0.5135 -1.1758
   89DOPC   H7S12203   6.140   2.963   2.802  1.1405  3.5681  0.8815
   89DOPC   C2812204   6.281   2.897   2.975  0.4544 -0.4809 -0.3793
   89DOPC   H8R12205   6.388   2.869   2.983  1.5905  2.2630 -3.4892
   89DOPC   H8S12206   6.224   2.815   3.022  1.5648  0.3792  2.7456
   89DOPC   C2912207   6.253   3.005   3.075  0.7414 -0.2446  0.5612
   89DOPC   H9R12208   6.156   3.057   3.077  0.7822 -0.0781 -1.0086
   89DOPC  C21012209   6.348   3.065   3.155  0.1259 -0.2372  0.3115
   89DOPC  H10R12210   6.315   3.147   3.220 -0.7182 -0.0665 -0.3107
   89DOPC  C21112211   6.501   3.039   3.142  0.0474 -0.2913  0.2303
   89DOPC  H11R12212   6.552   3.137   3.155  3.0430 -1.5713 -1.0027
   89DOPC  H11S12213   6.529   3.005   3.040  0.2008  0.8931 -0.1449
   89DOPC  C21212214   6.540   2.938   3.242 -0.6362  0.6978  0.2851
   89DOPC  H12R12215   6.640   2.893   3.223 -2.6938 -2.9762 -3.8330
   89DOPC  H12S12216   6.471   2.852   3.252 -0.4109  0.2737 -1.4989
   89DOPC  C21312217   6.561   3.001   3.378  0.1402  0.4616 -0.2373
   89DOPC  H13R12218   6.462   3.046   3.401 -0.0814 -0.2087  0.1536
   89DOPC  H13S12219   6.640   3.078   3.373  0.4881  0.0982 -0.3299
   89DOPC  C21412220   6.609   2.895   3.482  0.6867  0.1453 -0.4505
   89DOPC  H14R12221   6.703   2.845   3.450  1.3396  0.6490  0.6528
   89DOPC  H14S12222   6.542   2.808   3.503  1.7877 -0.5753  0.1871
   89DOPC  C21512223   6.659   2.964   3.617  0.2658  0.9530  0.0021
   89DOPC  H15R12224   6.576   3.030   3.649  1.4429  1.9896  1.0398
   89DOPC  H15S12225   6.749   3.028   3.600  0.4763  1.5784  2.9734
   89DOPC  C21612226   6.706   2.856   3.712  0.2280 -0.0786 -0.3402
   89DOPC  H16R12227   6.786   2.796   3.664  1.0045  0.3211  0.4163
   89DOPC  H16S12228   6.625   2.787   3.744  1.8408 -1.2998  1.3562
   89DOPC  C21712229   6.774   2.932   3.837  0.0105 -1.5482 -0.0583
   89DOPC  H17R12230   6.706   3.008   3.882  1.6406  0.7825 -1.3225
   89DOPC  H17S12231   6.863   2.989   3.805  1.9981 -3.8719  0.9433
   89DOPC  C21812232   6.815   2.835   3.944 -1.0415 -0.1854  0.4747
   89DOPC  H18R12233   6.733   2.764   3.967  0.1229 -1.7421 -0.0313
   89DOPC  H18S12234   6.836   2.879   4.043 -1.3086 -0.0915  0.4911
   89DOPC  H18T12235   6.898   2.772   3.906 -1.5433 -0.2463 -0.5667
   89DOPC   C3312236   6.816   3.511   2.937 -0.5645  0.3436  0.1693
   89DOPC   H3X12237   6.836   3.594   3.008  0.5598 -1.2288  1.7917
   89DOPC   H3Y12238   6.873   3.420   2.968 -1.3582 -1.0461 -2.1595
   89DOPC   C3412239   6.667   3.483   2.953  0.5266 -0.1647  0.1485
   89DOPC   H4X12240   6.626   3.385   2.918 -0.7004  0.2109  0.4648
   89DOPC   H4Y12241   6.616   3.563   2.895 -0.1436 -0.2918  0.5433
   89DOPC   C3512242   6.619   3.495   3.101 -1.0304 -0.3842  0.4017
   89DOPC   H5X12243   6.669   3.578   3.157  0.9474 -0.3680 -1.2538
   89DOPC   H5Y12244   6.653   3.404   3.154  0.8250  1.9585  3.6394
   89DOPC   C3612245   6.469   3.505   3.118  0.2445  0.3267 -0.0277
   89DOPC   H6X12246   6.440   3.596   3.060 -1.5288  1.2141  2.1317
   89DOPC   H6Y12247   6.426   3.412   3.074  1.1892 -1.6045  2.8736
   89DOPC   C3712248   6.445   3.522   3.269 -0.3757  0.8067  0.0503
   89DOPC   H7X12249   6.476   3.435   3.330 -2.8852 -0.7253 -0.7153
   89DOPC   H7Y12250   6.514   3.598   3.312 -0.0195 -0.9064  2.7443
   89DOPC   C3812251   6.297   3.561   3.300  0.1938 -0.2409 -0.1942
   89DOPC   H8X12252   6.236   3.475   3.266  0.1591  0.0378 -0.8446
   89DOPC   H8Y12253   6.274   3.650   3.238  0.0257 -1.0106 -1.2633
   89DOPC   C3912254   6.262   3.598   3.450  0.5195  0.0413  0.6693
   89DOPC   H9X12255   6.307   3.690   3.489 -1.2121  2.1221 -1.9491
   89DOPC  C31012256   6.184   3.530   3.532 -0.4324 -0.2025 -0.1980
   89DOPC  H10X12257   6.187   3.554   3.640 -1.5729  0.5033 -0.3198
   89DOPC  C31112258   6.135   3.385   3.513  0.8157  0.0873 -0.2748
   89DOPC  H11X12259   6.176   3.338   3.421 -0.9576 -0.1078 -1.0132
   89DOPC  H11Y12260   6.024   3.383   3.502  0.4308 -0.6611  2.8366
   89DOPC  C31212261   6.183   3.281   3.615  0.4540  0.0615 -1.0530
   89DOPC  H12X12262   6.131   3.308   3.709  2.4166  1.0449 -0.2030
   89DOPC  H12Y12263   6.291   3.279   3.640  0.3154 -0.4795 -0.4703
   89DOPC  C31312264   6.135   3.137   3.573 -0.3147  0.0560 -0.3999
   89DOPC  H13X12265   6.026   3.127   3.591 -0.0610 -1.0737  0.6240
   89DOPC  H13Y12266   6.158   3.114   3.466  0.7202  0.9161 -0.3855
   89DOPC  C31412267   6.213   3.022   3.646 -0.1896 -0.7428 -0.0678
   89DOPC  H14X12268   6.314   3.007   3.603 -0.9614 -0.5834 -2.0941
   89DOPC  H14Y12269   6.223   3.038   3.755  1.8343  0.6172 -0.4062
   89DOPC  C31512270   6.148   2.890   3.616  0.1319  0.2050  0.5642
   89DOPC  H15X12271   6.212   2.817   3.670  1.0851  0.9921  0.5243
   89DOPC  H15Y12272   6.164   2.881   3.507 -0.1129  2.5070  0.2973
   89DOPC  C31612273   5.995   2.871   3.649  0.1475 -0.1490 -0.2003
   89DOPC  H16X12274   5.936   2.925   3.572 -0.3297 -2.5575 -1.6374
   89DOPC  H16Y12275   5.958   2.766   3.643  0.5580 -0.3779  1.0454
   89DOPC  C31712276   5.958   2.927   3.783  0.1233 -0.0466 -0.7621
   89DOPC  H17X12277   6.021   2.884   3.863  1.3778  2.7025 -0.1732
   89DOPC  H17Y12278   5.978   3.036   3.792 -0.3353 -0.1519  4.3057
   89DOPC  C31812279   5.810   2.902   3.816  0.0452 -0.4545 -1.0160
   89DOPC  H18X12280   5.782   2.797   3.794 -0.1873 -0.4211 -0.8888
   89DOPC  H18Y12281   5.799   2.906   3.927 -0.5965 -3.0238 -0.9250
   89DOPC  H18Z12282   5.743   2.975   3.765 -1.4768 -0.9726  0.1502
   90DOPC     N12283   5.212   2.505   2.297 -0.3119 -0.0690 -0.0509
   90DOPC   C1212284   5.198   2.647   2.266  0.0644  0.3078 -0.1779
   90DOPC  H12A12285   5.123   2.657   2.190 -0.4167  0.2128  0.2815
   90DOPC  H12B12286   5.279   2.690   2.210 -0.0224 -1.5140 -1.7828
   90DOPC   C1312287   5.255   2.430   2.171 -0.2298  0.2217 -0.2775
   90DOPC  H13A12288   5.190   2.444   2.086 -1.4562  1.8738  0.8609
   90DOPC  H13B12289   5.355   2.463   2.146 -0.6480  0.3499 -1.8879
   90DOPC  H13C12290   5.262   2.325   2.195  0.9962  0.4846  0.5840
   90DOPC   C1412291   5.080   2.450   2.343 -0.8274 -0.1263 -0.4086
   90DOPC  H14A12292   5.035   2.511   2.420 -0.7032 -1.3066  0.6359
   90DOPC  H14B12293   5.006   2.452   2.264  1.0723 -1.0036 -2.3083
   90DOPC  H14C12294   5.087   2.347   2.375  1.0477 -0.6790 -2.3493
   90DOPC   C1512295   5.309   2.470   2.403 -0.3517 -0.1895  0.3488
   90DOPC  H15A12296   5.294   2.513   2.501 -1.5308  2.1102 -0.7404
   90DOPC  H15B12297   5.409   2.508   2.389 -0.1579 -0.8480 -0.0929
   90DOPC  H15C12298   5.310   2.364   2.421  0.1028 -0.1514  0.5519
   90DOPC   C1112299   5.153   2.744   2.373 -0.6004 -0.4045  0.1149
   90DOPC  H11A12300   5.063   2.710   2.429  0.5353  1.1930  3.1279
   90DOPC  H11B12301   5.238   2.762   2.442  0.8249  1.5928 -2.0165
   90DOPC     P12302   4.992   2.898   2.231  0.2833  0.2082  0.5298
   90DOPC   O1312303   4.985   2.802   2.116 -0.1660 -0.4400 -0.4612
   90DOPC   O1412304   5.003   3.040   2.201 -0.2094  0.3658 -0.0726
   90DOPC   O1212305   5.125   2.871   2.309  0.1051 -0.8875  0.0094
   90DOPC   O1112306   4.868   2.874   2.327  0.0383 -0.0879 -0.2947
   90DOPC    C112307   4.815   2.979   2.409  0.2501 -0.6572 -0.5005
   90DOPC    HA12308   4.732   2.943   2.474  0.3959  0.5011  0.3617
   90DOPC    HB12309   4.780   3.066   2.350  1.4262 -0.4681 -0.9409
   90DOPC    C212310   4.916   3.023   2.518  0.0039  0.8026  0.1033
   90DOPC    HS12311   5.003   3.061   2.460  1.3795 -0.6079  1.1609
   90DOPC   O2112312   4.957   2.906   2.590  0.1952 -0.2779 -0.8652
   90DOPC   C2112313   5.079   2.914   2.642  0.6719  0.4584  0.0829
   90DOPC   O2212314   5.159   3.006   2.628  0.0074 -0.9545  0.4370
   90DOPC   C2212315   5.109   2.782   2.719 -0.4092  0.2880 -0.1388
   90DOPC   H2R12316   5.177   2.722   2.656 -1.2081 -1.9941  1.0599
   90DOPC   H2S12317   5.012   2.728   2.728  0.2606 -0.8224  0.7144
   90DOPC    C312318   4.877   3.144   2.614 -0.0035 -0.3968  0.3431
   90DOPC    HX12319   4.858   3.223   2.537  0.3485 -1.1251 -0.5088
   90DOPC    HY12320   4.969   3.160   2.674  0.2126 -1.2710  0.2529
   90DOPC   O3112321   4.756   3.126   2.689  0.0148 -0.2506 -0.0176
   90DOPC   C3112322   4.779   3.096   2.818  0.1136 -0.3038 -0.1360
   90DOPC   O3212323   4.883   3.071   2.873  0.5691  0.1156  0.4474
   90DOPC   C3212324   4.647   3.123   2.892  0.1156  0.2130  0.1783
   90DOPC   H2X12325   4.565   3.162   2.828  0.9049 -3.0927 -3.2097
   90DOPC   H2Y12326   4.614   3.024   2.930 -0.5235  0.2409 -0.2970
   90DOPC   C2312327   5.169   2.828   2.853  0.4441  0.3472 -0.2151
   90DOPC   H3R12328   5.105   2.885   2.924 -3.5541 -3.4491 -0.3885
   90DOPC   H3S12329   5.263   2.883   2.832  1.0705 -1.0050 -1.0373
   90DOPC   C2412330   5.212   2.705   2.936  0.2205 -0.2815 -0.3230
   90DOPC   H4R12331   5.278   2.638   2.876 -1.4038  0.1574 -2.7340
   90DOPC   H4S12332   5.116   2.656   2.961  0.4668 -0.1272  1.0073
   90DOPC   C2512333   5.288   2.752   3.060  0.2046  0.0117 -0.0623
   90DOPC   H5R12334   5.216   2.809   3.121  0.6838 -0.8848  1.3916
   90DOPC   H5S12335   5.371   2.815   3.021  1.1137 -1.4238 -0.5422
   90DOPC   C2612336   5.346   2.633   3.135  0.3774  0.8482 -0.1346
   90DOPC   H6R12337   5.425   2.571   3.087  1.4445  0.1323  2.3789
   90DOPC   H6S12338   5.268   2.559   3.162  2.2816 -1.2056  0.0260
   90DOPC   C2712339   5.420   2.667   3.273 -0.0454 -0.1556  0.1381
   90DOPC   H7R12340   5.349   2.688   3.356  1.4926  2.6289  0.8717
   90DOPC   H7S12341   5.479   2.759   3.254  0.9517 -1.2473 -2.4507
   90DOPC   C2812342   5.500   2.559   3.345  0.0621  0.3737 -0.5583
   90DOPC   H8R12343   5.432   2.473   3.367 -0.7793  1.0492 -0.4682
   90DOPC   H8S12344   5.535   2.596   3.443  1.0701 -2.3877  0.2317
   90DOPC   C2912345   5.620   2.524   3.257  0.1864  0.5788  0.3498
   90DOPC   H9R12346   5.685   2.610   3.235  1.1901 -0.5007 -1.0523
   90DOPC  C21012347   5.652   2.404   3.208  0.0786 -0.1976 -0.3824
   90DOPC  H10R12348   5.730   2.412   3.131 -0.3548 -1.3196 -0.9596
   90DOPC  C21112349   5.567   2.283   3.199  0.7902  0.0881  0.3153
   90DOPC  H11R12350   5.573   2.239   3.097  2.0544 -0.9573  0.8197
   90DOPC  H11S12351   5.462   2.318   3.203  1.3035  1.9580 -0.9214
   90DOPC  C21212352   5.603   2.174   3.297  0.0358 -0.1199 -0.2624
   90DOPC  H12R12353   5.595   2.204   3.404  5.2036 -1.6934  0.8593
   90DOPC  H12S12354   5.712   2.153   3.300  0.2952  1.0862 -0.5911
   90DOPC  C21312355   5.536   2.038   3.276 -0.1072 -0.1119  0.6348
   90DOPC  H13R12356   5.597   1.983   3.201  0.4115  1.0198  0.2098
   90DOPC  H13S12357   5.436   2.061   3.234  0.6636  1.7797 -0.2410
   90DOPC  C21412358   5.513   1.937   3.392 -0.6804  0.3826 -0.2024
   90DOPC  H14R12359   5.478   2.005   3.473 -0.9113  1.9921 -1.5780
   90DOPC  H14S12360   5.608   1.887   3.421 -0.6663 -0.5435 -1.7412
   90DOPC  C21512361   5.417   1.822   3.361  0.4599  0.0928 -0.0074
   90DOPC  H15R12362   5.446   1.767   3.269  0.0118 -1.8155  0.9349
   90DOPC  H15S12363   5.323   1.881   3.350 -0.1921 -0.1463  3.1963
   90DOPC  C21612364   5.393   1.729   3.485  0.0011  0.4973  0.8138
   90DOPC  H16R12365   5.455   1.770   3.567  2.5074  0.0485 -0.7580
   90DOPC  H16S12366   5.449   1.636   3.460 -0.1992  0.5799  0.0518
   90DOPC  C21712367   5.246   1.691   3.521 -0.5708  0.3112  0.0532
   90DOPC  H17R12368   5.251   1.618   3.605 -1.6658 -0.7611 -0.7741
   90DOPC  H17S12369   5.213   1.637   3.429 -0.3637  1.7418 -0.9063
   90DOPC  C21812370   5.149   1.814   3.552  0.1633  0.1147  0.5791
   90DOPC  H18R12371   5.051   1.778   3.590 -1.4523  0.3384 -2.9631
   90DOPC  H18S12372   5.126   1.874   3.461 -0.6296  0.2469  0.8544
   90DOPC  H18T12373   5.196   1.878   3.629  0.2480  1.3786 -0.4861
   90DOPC   C3312374   4.653   3.220   3.012 -0.3130  0.1224 -0.2590
   90DOPC   H3X12375   4.549   3.248   3.040  0.0234  2.0586 -0.7352
   90DOPC   H3Y12376   4.702   3.313   2.974 -1.0690 -0.5143 -3.0432
   90DOPC   C3412377   4.730   3.170   3.139  0.4842 -0.0217  0.6147
   90DOPC   H4X12378   4.827   3.126   3.105  0.1613 -0.5289  0.3469
   90DOPC   H4Y12379   4.659   3.097   3.184  1.3088  0.1565  2.2787
   90DOPC   C3512380   4.752   3.281   3.239  0.5104 -0.0703  0.8540
   90DOPC   H5X12381   4.664   3.336   3.276  0.8029 -0.1851  1.7394
   90DOPC   H5Y12382   4.809   3.359   3.184 -1.2835 -0.1698 -1.2841
   90DOPC   C3612383   4.841   3.231   3.354  0.1447  0.8151  0.1358
   90DOPC   H6X12384   4.925   3.169   3.316  0.8061  1.1289  1.0445
   90DOPC   H6Y12385   4.885   3.315   3.412 -0.1632  0.8457  0.3244
   90DOPC   C3712386   4.771   3.140   3.458  0.5892  0.4824 -0.4855
   90DOPC   H7X12387   4.695   3.195   3.518 -1.3315 -1.1124 -1.3332
   90DOPC   H7Y12388   4.721   3.055   3.406 -0.1662  0.7399 -0.1858
   90DOPC   C3812389   4.874   3.070   3.560 -0.0645  0.3943  0.1041
   90DOPC   H8X12390   4.945   3.016   3.493 -1.9453 -2.0481 -0.0368
   90DOPC   H8Y12391   4.822   2.988   3.614  1.5600  0.5553  2.0374
   90DOPC   C3912392   4.940   3.174   3.645  0.0725  0.8033 -0.0616
   90DOPC   H9X12393   4.997   3.250   3.590  0.2208  0.6833 -0.0762
   90DOPC  C31012394   4.944   3.197   3.775  0.4580  0.3581 -0.2167
   90DOPC  H10X12395   5.015   3.275   3.809 -2.3271  3.0285 -0.0714
   90DOPC  C31112396   4.887   3.114   3.893  0.1239 -0.3677  0.5959
   90DOPC  H11X12397   4.968   3.070   3.956  0.3332  1.5989  1.7799
   90DOPC  H11Y12398   4.825   3.032   3.851 -0.3241  0.2039  0.1229
   90DOPC  C31212399   4.787   3.193   3.990  0.0667  0.5871  0.0183
   90DOPC  H12X12400   4.743   3.105   4.043  0.6508  1.8244  2.7072
   90DOPC  H12Y12401   4.714   3.255   3.932 -0.3369  1.7245  1.6605
   90DOPC  C31312402   4.859   3.289   4.092  0.3139 -0.1960 -0.1799
   90DOPC  H13X12403   4.947   3.232   4.128 -0.0303 -1.2259 -0.9399
   90DOPC  H13Y12404   4.886   3.384   4.039 -0.9072 -0.7474 -1.8854
   90DOPC  C31412405   4.777   3.328   4.211  0.0106 -0.7283 -0.8351
   90DOPC  H14X12406   4.686   3.385   4.181 -0.3039  0.7309  2.4542
   90DOPC  H14Y12407   4.748   3.239   4.270 -1.6527 -0.5680 -1.3601
   90DOPC  C31512408   4.852   3.410   4.315  0.0898 -0.1777 -0.6042
   90DOPC  H15X12409   4.906   3.488   4.258  0.7179  0.4136  0.7753
   90DOPC  H15Y12410   4.926   3.352   4.373 -0.4364  1.5677  1.9662
   90DOPC  C31612411   4.760   3.482   4.415 -0.2139 -0.1315 -0.4698
   90DOPC  H16X12412   4.834   3.525   4.486 -0.5288 -0.9560  0.3724
   90DOPC  H16Y12413   4.690   3.550   4.362 -0.3901  0.3430  0.3530
   90DOPC  C31712414   4.696   3.383   4.511  0.0814  0.2918  0.2707
   90DOPC  H17X12415   4.628   3.321   4.448  1.0988 -2.1271  1.4178
   90DOPC  H17Y12416   4.778   3.315   4.543  2.3783  1.1848 -3.0984
   90DOPC  C31812417   4.617   3.451   4.622 -0.9789  0.5178  0.5160
   90DOPC  H18X12418   4.532   3.504   4.574  0.0719 -0.3252 -2.5275
   90DOPC  H18Y12419   4.575   3.373   4.689 -0.3695 -0.6813 -0.4375
   90DOPC  H18Z12420   4.683   3.512   4.687  0.9567 -0.4705 -0.4408
   91DOPC     N12421   0.055   5.647   1.670 -0.2384 -0.3043  0.1005
   91DOPC   C1212422   0.189   5.713   1.696 -0.4314  0.4944  0.0916
   91DOPC  H12A12423   0.202   5.740   1.800 -1.6645 -1.5342  0.8462
   91DOPC  H12B12424   0.189   5.807   1.644 -1.3828  0.0008 -0.8456
   91DOPC   C1312425   0.037   5.537   1.770  1.3372 -0.1440  0.2487
   91DOPC  H13A12426   0.111   5.462   1.751  1.5528  0.3212 -0.8194
   91DOPC  H13B12427   0.045   5.571   1.872  0.3404 -2.4302  1.1545
   91DOPC  H13C12428  -0.057   5.487   1.753  1.5926  0.0275 -1.9750
   91DOPC   C1412429   0.046   5.599   1.527  0.0062  0.1274 -0.1009
   91DOPC  H14A12430   0.084   5.665   1.451  0.4562 -0.8240 -0.7221
   91DOPC  H14B12431   0.120   5.520   1.518  0.1914  0.4328 -1.4161
   91DOPC  H14C12432  -0.048   5.553   1.502 -0.4827 -0.6448  2.7234
   91DOPC   C1512433  -0.056   5.749   1.691  0.6866  0.7536 -0.0691
   91DOPC  H15A12434  -0.154   5.707   1.669  1.0257  0.0476 -0.2511
   91DOPC  H15B12435  -0.041   5.832   1.624 -1.4625  0.7853 -0.5811
   91DOPC  H15C12436  -0.065   5.784   1.793  0.7197 -1.0676  0.6033
   91DOPC   C1112437   0.312   5.631   1.655 -0.2346 -0.2889 -0.3002
   91DOPC  H11A12438   0.302   5.619   1.545  0.9755  1.6992 -0.6630
   91DOPC  H11B12439   0.410   5.679   1.673 -0.6799  0.4228  0.2585
   91DOPC     P12440   0.387   5.471   1.859 -0.1321 -0.1315 -0.3043
   91DOPC   O1312441   0.533   5.489   1.833 -0.2508 -0.3420 -0.1151
   91DOPC   O1412442   0.343   5.340   1.904  0.1586  0.0708 -0.5861
   91DOPC   O1212443   0.312   5.506   1.723  0.0664 -0.3493 -0.2306
   91DOPC   O1112444   0.335   5.579   1.966 -0.0665 -0.5213  0.7077
   91DOPC    C112445   0.237   5.544   2.062  0.4935  0.8029 -0.1585
   91DOPC    HA12446   0.206   5.438   2.069  0.1669  0.9428  0.6053
   91DOPC    HB12447   0.146   5.606   2.044 -1.4404 -1.5771  0.8129
   91DOPC    C212448   0.290   5.575   2.206  0.6339 -0.0032  0.1384
   91DOPC    HS12449   0.328   5.679   2.210  1.9403 -0.4997  2.2824
   91DOPC   O2112450   0.383   5.466   2.233  0.1748  0.4657  0.3804
   91DOPC   C2112451   0.500   5.501   2.279 -0.7569 -0.1813  0.1202
   91DOPC   O2212452   0.525   5.619   2.301 -0.0916 -0.1437 -0.5042
   91DOPC   C2212453   0.595   5.388   2.301  0.2399  0.2099  0.5503
   91DOPC   H2R12454   0.651   5.375   2.206 -3.2984 -0.1260 -1.6510
   91DOPC   H2S12455   0.540   5.295   2.329 -0.5016  0.8889  1.4217
   91DOPC    C312456   0.179   5.574   2.307  0.9020 -0.7457  0.2554
   91DOPC    HX12457   0.111   5.490   2.279 -2.6040  2.0134 -0.2684
   91DOPC    HY12458   0.114   5.663   2.289  0.8697 -1.0506 -1.3015
   91DOPC   O3112459   0.225   5.587   2.440 -0.5702  0.2865  0.1284
   91DOPC   C3112460   0.259   5.482   2.512  0.0956  0.3837 -0.2911
   91DOPC   O3212461   0.246   5.366   2.469 -0.2972 -0.2241 -0.0701
   91DOPC   C3212462   0.303   5.531   2.649 -0.8259  0.4355 -0.0779
   91DOPC   H2X12463   0.410   5.559   2.639 -0.6178  0.2754  1.4173
   91DOPC   H2Y12464   0.246   5.625   2.662  1.0115  1.3429  2.1044
   91DOPC   C2312465   0.701   5.402   2.414 -0.3805 -0.6797  0.4331
   91DOPC   H3R12466   0.760   5.485   2.368 -2.3855  1.3312  1.2871
   91DOPC   H3S12467   0.754   5.305   2.405  1.8107  0.2345  2.5085
   91DOPC   C2412468   0.647   5.422   2.555 -0.7658 -0.2094 -0.2040
   91DOPC   H4R12469   0.551   5.370   2.577 -1.5822  1.9444  1.7272
   91DOPC   H4S12470   0.622   5.529   2.571  1.6397  0.0902  2.4927
   91DOPC   C2512471   0.751   5.380   2.661  0.3161 -0.1620  0.1217
   91DOPC   H5R12472   0.826   5.462   2.663  0.2208 -0.0733  0.0036
   91DOPC   H5S12473   0.775   5.275   2.636 -1.9195 -1.0781  1.5055
   91DOPC   C2612474   0.684   5.380   2.806 -0.2071  0.8532  0.8069
   91DOPC   H6R12475   0.624   5.287   2.812 -0.4439  0.9752  0.3759
   91DOPC   H6S12476   0.625   5.474   2.810 -1.1358  0.2469  1.9333
   91DOPC   C2712477   0.789   5.392   2.919  0.2568  0.0354  0.2230
   91DOPC   H7R12478   0.744   5.400   3.020  0.9064  0.2264  0.5022
   91DOPC   H7S12479   0.841   5.486   2.892 -2.1738  1.6464  0.8235
   91DOPC   C2812480   0.892   5.281   2.925  0.3422  0.6555  0.3959
   91DOPC   H8R12481   0.968   5.314   2.998 -0.3894  0.2726  1.3548
   91DOPC   H8S12482   0.934   5.271   2.823 -1.5093  2.3623 -0.6208
   91DOPC   C2912483   0.849   5.141   2.969 -0.0518  0.2384  0.7187
   91DOPC   H9R12484   0.825   5.077   2.883  0.8147  1.5198 -0.5286
   91DOPC  C21012485   0.843   5.094   3.092  0.9395  0.1080  0.0515
   91DOPC  H10R12486   0.817   4.987   3.099  1.2188  0.0045 -0.4546
   91DOPC  C21112487   0.888   5.168   3.217  0.6603 -0.8423  0.0485
   91DOPC  H11R12488   0.802   5.227   3.256  3.0914  1.2937  2.6527
   91DOPC  H11S12489   0.959   5.249   3.189  2.2584 -1.3474  2.3694
   91DOPC  C21212490   0.949   5.074   3.324  0.5470  0.1568 -0.7386
   91DOPC  H12R12491   1.050   5.041   3.294  0.0323  0.3464 -2.7793
   91DOPC  H12S12492   0.881   4.986   3.335 -1.1119  1.4228 -0.2717
   91DOPC  C21312493   0.955   5.154   3.457  0.4233  0.2097 -0.1516
   91DOPC  H13R12494   0.853   5.193   3.480 -1.7376 -3.9927 -1.6653
   91DOPC  H13S12495   1.020   5.244   3.446 -1.1090  1.1354 -2.4097
   91DOPC  C21412496   0.994   5.069   3.582  0.0287  0.5123  0.1637
   91DOPC  H14R12497   1.019   5.141   3.663  0.3521  1.9027 -1.1300
   91DOPC  H14S12498   1.085   5.010   3.559  1.4805  2.2999  1.1013
   91DOPC  C21512499   0.890   4.962   3.624  0.5498 -0.1075 -0.0153
   91DOPC  H15R12500   0.878   4.891   3.539 -0.7560  3.0487 -2.6953
   91DOPC  H15S12501   0.793   5.013   3.641  0.0686 -0.6618 -1.0235
   91DOPC  C21612502   0.937   4.880   3.749  0.6233  0.7179  0.3183
   91DOPC  H16R12503   0.969   4.943   3.835  2.7837  0.1077  0.0115
   91DOPC  H16S12504   1.034   4.829   3.732 -0.0420 -0.2527 -0.7091
   91DOPC  C21712505   0.834   4.774   3.787 -0.4436 -0.5072 -0.3951
   91DOPC  H17R12506   0.867   4.713   3.874 -1.9387 -2.6327 -1.2555
   91DOPC  H17S12507   0.835   4.687   3.719  0.9994 -0.5378 -0.3834
   91DOPC  C21812508   0.683   4.818   3.805  0.3311 -0.3366  0.4947
   91DOPC  H18R12509   0.654   4.842   3.700  5.1614 -1.2430 -1.2973
   91DOPC  H18S12510   0.683   4.912   3.863 -1.1331  0.6678 -1.0408
   91DOPC  H18T12511   0.615   4.741   3.847  0.4382 -0.8269 -0.2053
   91DOPC   C3312512   0.265   5.437   2.760 -0.3481  0.9024 -0.9809
   91DOPC   H3X12513   0.316   5.338   2.760  1.0680  1.5819  0.9745
   91DOPC   H3Y12514   0.156   5.417   2.773 -0.0436 -0.7907 -0.6891
   91DOPC   C3412515   0.309   5.482   2.903 -0.2264 -0.5597 -0.4498
   91DOPC   H4X12516   0.252   5.576   2.922 -1.2739 -1.1877 -0.3679
   91DOPC   H4Y12517   0.418   5.500   2.900 -0.4046  0.5625 -0.5658
   91DOPC   C3512518   0.274   5.390   3.021  0.2360  0.3248 -0.4504
   91DOPC   H5X12519   0.291   5.286   2.984  0.5558  0.2439 -0.0738
   91DOPC   H5Y12520   0.165   5.398   3.042  0.3795  1.0161  0.0496
   91DOPC   C3612521   0.331   5.422   3.161  0.1421 -0.3471 -0.4074
   91DOPC   H6X12522   0.432   5.468   3.160 -0.4366  1.1586  1.7693
   91DOPC   H6Y12523   0.265   5.496   3.211 -0.8303 -0.9677 -0.7421
   91DOPC   C3712524   0.315   5.301   3.258 -0.1589 -1.0887  0.3214
   91DOPC   H7X12525   0.208   5.277   3.276 -1.1029  3.2369  1.5604
   91DOPC   H7Y12526   0.364   5.211   3.214 -0.9015 -0.7223 -1.3408
   91DOPC   C3812527   0.391   5.342   3.384 -0.6300  0.4753 -0.2261
   91DOPC   H8X12528   0.493   5.369   3.349 -0.2264  3.5459  2.7748
   91DOPC   H8Y12529   0.405   5.256   3.454 -2.0473 -0.2853 -0.8457
   91DOPC   C3912530   0.324   5.449   3.464 -0.1073 -0.2060 -0.4544
   91DOPC   H9X12531   0.314   5.541   3.405 -1.0757 -1.7861 -2.9105
   91DOPC  C31012532   0.268   5.440   3.584 -0.0468 -0.1482 -0.0419
   91DOPC  H10X12533   0.198   5.515   3.623 -2.6462 -2.4838  0.1076
   91DOPC  C31112534   0.261   5.317   3.669  0.3323 -0.3538 -0.1428
   91DOPC  H11X12535   0.356   5.303   3.725 -2.2774 -2.3645  4.2793
   91DOPC  H11Y12536   0.247   5.224   3.610  1.9069  1.1418 -3.1081
   91DOPC  C31212537   0.158   5.337   3.797 -0.1601  0.8968 -0.0492
   91DOPC  H12X12538   0.146   5.238   3.846  0.8342  0.7604 -0.0598
   91DOPC  H12Y12539   0.065   5.364   3.741  0.9660  2.6969 -1.1778
   91DOPC  C31312540   0.212   5.432   3.904 -0.9523 -0.3426  0.1887
   91DOPC  H13X12541   0.300   5.389   3.955 -1.2998 -0.7798  0.4254
   91DOPC  H13Y12542   0.243   5.533   3.870 -0.0648 -0.7975 -0.3844
   91DOPC  C31412543   0.103   5.464   4.006  0.2406  0.3234 -0.4729
   91DOPC  H14X12544   0.008   5.490   3.954  0.9218  2.9486 -0.5597
   91DOPC  H14Y12545   0.087   5.367   4.058  2.1794  0.7278  0.9893
   91DOPC  C31512546   0.135   5.581   4.102 -0.2315  0.1270 -0.3345
   91DOPC  H15X12547   0.132   5.682   4.056  3.7771  0.1822 -0.7832
   91DOPC  H15Y12548   0.238   5.564   4.138 -0.8158  1.0631  1.9148
   91DOPC  C31612549   0.047   5.584   4.228 -0.0912  0.1060  0.5072
   91DOPC  H16X12550   0.059   5.487   4.281  2.6765 -1.1442 -2.1429
   91DOPC  H16Y12551   0.090   5.652   4.306  2.4591 -2.3365  1.4217
   91DOPC  C31712552  -0.097   5.623   4.210  0.3975  0.3332 -0.9086
   91DOPC  H17X12553  -0.104   5.732   4.188  0.3492  1.0257  2.1732
   91DOPC  H17Y12554  -0.135   5.561   4.126  2.6082 -1.2411 -0.8088
   91DOPC  C31812555  -0.177   5.588   4.337  0.4605 -0.1744  1.2923
   91DOPC  H18X12556  -0.132   5.635   4.427  1.3549  2.1757 -0.2752
   91DOPC  H18Y12557  -0.281   5.625   4.324 -0.1720 -2.5906 -1.4478
   91DOPC  H18Z12558  -0.183   5.478   4.346  0.9181 -0.4353 -0.9817
   92DOPC     N12559   1.432   2.980   2.396  0.3115  0.2872 -1.1404
   92DOPC   C1212560   1.474   2.836   2.393  0.5596 -0.0752 -0.4591
   92DOPC  H12A12561   1.538   2.823   2.479  1.5964  0.7056 -1.0922
   92DOPC  H12B12562   1.538   2.816   2.309  0.2102 -0.7423 -0.5789
   92DOPC   C1312563   1.324   3.013   2.297 -0.0561 -0.1900 -0.3448
   92DOPC  H13A12564   1.234   2.955   2.308  0.9223 -2.0488 -1.5523
   92DOPC  H13B12565   1.283   3.113   2.301  1.5235  0.6370 -2.5428
   92DOPC  H13C12566   1.363   2.988   2.199  0.1201 -0.9790 -0.0781
   92DOPC   C1412567   1.552   3.059   2.354 -0.3285  0.4485  0.4582
   92DOPC  H14A12568   1.644   3.044   2.408 -0.0979  0.8578  0.1800
   92DOPC  H14B12569   1.567   3.049   2.248 -2.1565 -1.4418  0.3052
   92DOPC  H14C12570   1.536   3.165   2.363  0.9889  0.8754 -1.7137
   92DOPC   C1512571   1.391   3.014   2.536  0.4949 -0.9434  1.1986
   92DOPC  H15A12572   1.482   3.049   2.583  0.7489  1.1303 -0.6537
   92DOPC  H15B12573   1.351   2.931   2.592 -1.8072 -1.7903 -1.4647
   92DOPC  H15C12574   1.326   3.100   2.548  0.9357 -0.7523  2.4328
   92DOPC   C1112575   1.358   2.732   2.403  0.0235 -0.6144 -0.1490
   92DOPC  H11A12576   1.282   2.762   2.328  1.0127  0.3858 -0.7801
   92DOPC  H11B12577   1.399   2.631   2.385 -0.3783 -1.0045  1.0334
   92DOPC     P12578   1.190   2.640   2.573 -0.2804 -0.0314  0.0757
   92DOPC   O1312579   1.245   2.504   2.562  0.4687  0.1290 -0.1912
   92DOPC   O1412580   1.070   2.668   2.492  0.0119 -0.4817 -0.2937
   92DOPC   O1212581   1.295   2.748   2.534  0.1792 -0.1895  0.5855
   92DOPC   O1112582   1.156   2.689   2.728  0.5024  0.1340  0.3927
   92DOPC    C112583   1.065   2.802   2.747 -0.1803  0.2781  0.7692
   92DOPC    HA12584   0.973   2.775   2.692  0.1428 -0.1095  0.4047
   92DOPC    HB12585   1.114   2.889   2.699  2.2409 -1.6800 -0.5678
   92DOPC    C212586   1.023   2.821   2.892  0.4926 -0.8421  0.3049
   92DOPC    HS12587   0.953   2.907   2.902 -0.8582 -1.8342 -0.2745
   92DOPC   O2112588   1.134   2.833   2.976  0.1651 -0.1408  0.2420
   92DOPC   C2112589   1.195   2.952   2.975  0.3657  0.8330 -0.2376
   92DOPC   O2212590   1.157   3.048   2.909  0.3084 -0.1877 -0.6063
   92DOPC   C2212591   1.302   2.965   3.085 -0.8621 -0.2238  0.5196
   92DOPC   H2R12592   1.334   3.071   3.097  3.5083 -1.4698  1.7978
   92DOPC   H2S12593   1.390   2.911   3.043 -1.2030  0.3116 -0.9622
   92DOPC    C312594   0.929   2.705   2.936  0.1218  0.0618  0.7098
   92DOPC    HX12595   0.990   2.613   2.926  1.6636  0.9587  1.3126
   92DOPC    HY12596   0.848   2.706   2.861 -1.7502  0.3974  2.6570
   92DOPC   O3112597   0.875   2.730   3.066 -0.1603 -0.2722  0.2270
   92DOPC   C3112598   0.937   2.662   3.171  0.2614 -0.3468 -0.0730
   92DOPC   O3212599   1.024   2.579   3.160  0.5299 -0.2959 -0.3031
   92DOPC   C3212600   0.870   2.701   3.300  0.4242  0.1571  0.1630
   92DOPC   H2X12601   0.818   2.798   3.281  1.9405  0.8529 -0.6101
   92DOPC   H2Y12602   0.791   2.627   3.327 -2.4358  3.1394  0.6914
   92DOPC   C2312603   1.263   2.922   3.229 -0.4189 -0.3270  0.1180
   92DOPC   H3R12604   1.245   2.813   3.236  0.1336 -0.4890 -0.8094
   92DOPC   H3S12605   1.167   2.972   3.253 -0.8786 -1.9448  1.7744
   92DOPC   C2412606   1.366   2.977   3.329  0.6306  0.1741  0.1137
   92DOPC   H4R12607   1.375   3.086   3.309  1.6302 -0.3291 -2.5373
   92DOPC   H4S12608   1.469   2.939   3.316  0.6867 -0.1985  1.4850
   92DOPC   C2512609   1.325   2.963   3.486  0.2849 -0.3198  0.6418
   92DOPC   H5R12610   1.301   2.855   3.495 -0.0060 -0.8239 -3.8509
   92DOPC   H5S12611   1.234   3.024   3.505  1.6200  1.5862  1.2392
   92DOPC   C2612612   1.447   3.007   3.572  0.0779 -0.6101 -0.3663
   92DOPC   H6R12613   1.543   2.971   3.531  0.0391 -1.2290  0.0749
   92DOPC   H6S12614   1.437   2.967   3.676  1.2765 -0.5912 -0.2272
   92DOPC   C2712615   1.473   3.163   3.584 -0.0243 -0.0845 -0.6465
   92DOPC   H7R12616   1.385   3.198   3.643  1.7587  0.5194  1.8237
   92DOPC   H7S12617   1.480   3.220   3.489 -0.7928  1.2612  0.0792
   92DOPC   C2812618   1.593   3.195   3.681  0.3272  0.2668 -0.0227
   92DOPC   H8R12619   1.673   3.122   3.656  0.6626  0.7223 -0.2998
   92DOPC   H8S12620   1.544   3.187   3.781  0.3406  3.1233  0.2754
   92DOPC   C2912621   1.632   3.340   3.665  0.6985  0.0362  0.2639
   92DOPC   H9R12622   1.688   3.353   3.571  0.3762 -3.6516 -0.5974
   92DOPC  C21012623   1.602   3.450   3.744  0.2230 -0.3518  0.0330
   92DOPC  H10R12624   1.637   3.549   3.712 -0.9271  0.3540  0.8726
   92DOPC  C21112625   1.532   3.437   3.877 -0.1251  0.0300  0.3394
   92DOPC  H11R12626   1.446   3.368   3.869 -0.3534 -0.0476  2.6156
   92DOPC  H11S12627   1.496   3.539   3.902  1.0881  1.1208 -2.0249
   92DOPC  C21212628   1.628   3.395   3.990  0.6947 -0.7463 -0.5822
   92DOPC  H12R12629   1.711   3.467   4.006  1.0726 -0.8051 -2.1095
   92DOPC  H12S12630   1.689   3.310   3.952  1.6689 -1.2577  1.9279
   92DOPC  C21312631   1.553   3.355   4.118 -0.0200 -0.4604  0.1264
   92DOPC  H13R12632   1.502   3.260   4.090 -0.2552 -0.3005  0.0134
   92DOPC  H13S12633   1.471   3.428   4.135  0.8948  0.0875  2.5685
   92DOPC  C21412634   1.644   3.342   4.238 -0.3442  0.0754 -0.0150
   92DOPC  H14R12635   1.713   3.429   4.243  0.2800 -0.4569  1.0666
   92DOPC  H14S12636   1.714   3.256   4.225  2.4503  2.4250 -1.9903
   92DOPC  C21512637   1.572   3.317   4.372 -0.0863 -0.4044 -0.6157
   92DOPC  H15R12638   1.539   3.211   4.367  0.6773 -0.8722  2.3517
   92DOPC  H15S12639   1.488   3.388   4.385  1.1505  1.3971 -1.9862
   92DOPC  C21612640   1.662   3.337   4.499  0.2298  0.3152  0.6366
   92DOPC  H16R12641   1.701   3.441   4.501 -2.0721  1.2079  1.2596
   92DOPC  H16S12642   1.753   3.274   4.484 -1.3969 -2.6172  2.0442
   92DOPC  C21712643   1.604   3.287   4.631  0.0056 -0.4662  0.0606
   92DOPC  H17R12644   1.580   3.178   4.623 -1.3408 -0.1484 -0.4880
   92DOPC  H17S12645   1.511   3.346   4.649  0.9689  1.7327 -1.7186
   92DOPC  C21812646   1.696   3.303   4.751 -0.7155 -0.5517  0.9316
   92DOPC  H18R12647   1.668   3.245   4.841 -1.4108  2.1959  2.5736
   92DOPC  H18S12648   1.697   3.412   4.772  2.2312 -0.4321  0.6995
   92DOPC  H18T12649   1.801   3.277   4.726 -0.9480 -2.5106  1.8297
   92DOPC   C3312650   0.964   2.700   3.423 -0.1907  0.7603  0.4044
   92DOPC   H3X12651   1.062   2.745   3.397  0.8843 -1.1731  0.9247
   92DOPC   H3Y12652   0.997   2.597   3.448  0.6727  1.4051  2.1196
   92DOPC   C3412653   0.895   2.760   3.551 -0.3696 -0.3892 -0.0455
   92DOPC   H4X12654   0.833   2.677   3.591 -2.0402  0.1973 -1.3167
   92DOPC   H4Y12655   0.836   2.852   3.534  1.0787  0.1088 -3.1473
   92DOPC   C3512656   0.999   2.784   3.669  0.2371 -0.2497  0.9945
   92DOPC   H5X12657   1.070   2.862   3.635 -1.5962 -0.1638 -3.2787
   92DOPC   H5Y12658   1.058   2.692   3.688  2.5316  0.4640 -1.8901
   92DOPC   C3612659   0.932   2.829   3.798 -0.9059  0.1241 -0.2804
   92DOPC   H6X12660   0.908   2.936   3.784 -0.2785  0.2809 -0.1777
   92DOPC   H6Y12661   0.836   2.775   3.812  0.1935 -2.4589 -1.8694
   92DOPC   C3712662   1.020   2.813   3.927 -0.0774 -0.9962 -0.1749
   92DOPC   H7X12663   0.948   2.854   4.000 -0.6195 -0.4104 -1.0196
   92DOPC   H7Y12664   1.035   2.704   3.939 -0.0820 -1.0542 -0.6840
   92DOPC   C3812665   1.158   2.880   3.922  0.2470 -0.2120  0.4383
   92DOPC   H8X12666   1.219   2.822   3.849 -0.0527  0.0856 -0.0488
   92DOPC   H8Y12667   1.211   2.878   4.020 -2.4634  2.6593  2.1390
   92DOPC   C3912668   1.153   3.021   3.879 -0.2307  0.7911 -0.2681
   92DOPC   H9X12669   1.150   3.038   3.770 -1.8703 -1.3420 -0.6177
   92DOPC  C31012670   1.158   3.128   3.958  0.1746 -0.1685  0.0461
   92DOPC  H10X12671   1.161   3.227   3.911 -0.5202 -0.3305 -0.3476
   92DOPC  C31112672   1.156   3.137   4.115  0.2566 -0.4398  0.1098
   92DOPC  H11X12673   1.185   3.243   4.136 -2.1158  0.0271  1.4523
   92DOPC  H11Y12674   1.231   3.074   4.167 -0.8562  1.7510  4.9971
   92DOPC  C31212675   1.027   3.094   4.188 -0.9962  0.0128 -0.4060
   92DOPC  H12X12676   1.029   3.113   4.297  0.2347 -1.3248 -0.1732
   92DOPC  H12Y12677   1.014   2.984   4.182 -0.5047 -0.0000 -1.3983
   92DOPC  C31312678   0.911   3.161   4.129 -0.1286 -0.2172  0.0498
   92DOPC  H13X12679   0.924   3.271   4.125  1.3158 -0.4085 -2.5720
   92DOPC  H13Y12680   0.902   3.118   4.027  2.9494 -2.2457  0.4630
   92DOPC  C31412681   0.784   3.146   4.218  0.8154  0.0276  0.1001
   92DOPC  H14X12682   0.759   3.038   4.220  1.0889 -0.0900 -1.4522
   92DOPC  H14Y12683   0.805   3.192   4.317 -0.1845 -1.3236  0.9654
   92DOPC  C31512684   0.657   3.223   4.169  0.0974  0.1787  0.1594
   92DOPC  H15X12685   0.570   3.169   4.210 -0.3869 -0.1881 -1.2942
   92DOPC  H15Y12686   0.651   3.225   4.058  0.6235  0.8847  0.1348
   92DOPC  C31612687   0.657   3.375   4.204 -0.2940 -0.3262  0.1561
   92DOPC  H16X12688   0.701   3.393   4.305 -2.4181  1.3942  0.8576
   92DOPC  H16Y12689   0.729   3.418   4.130  0.9814 -1.8603  0.4573
   92DOPC  C31712690   0.529   3.456   4.211  0.4900 -0.5562  0.8628
   92DOPC  H17X12691   0.470   3.437   4.119  1.1672  1.4313 -0.0355
   92DOPC  H17Y12692   0.477   3.414   4.300 -0.4897 -1.6570 -0.1972
   92DOPC  C31812693   0.550   3.607   4.219  0.1378 -0.2193 -0.5329
   92DOPC  H18X12694   0.614   3.635   4.132 -0.6284 -1.2177 -1.4391
   92DOPC  H18Y12695   0.457   3.667   4.222  0.2815  0.3230 -3.4668
   92DOPC  H18Z12696   0.607   3.633   4.311  0.7366 -1.4172 -0.5401
   93DOPC     N12697   6.880   1.778   1.656  0.0325 -0.4895  0.3045
   93DOPC   C1212698   6.907   1.782   1.811 -0.6714  0.6081 -0.3426
   93DOPC  H12A12699   6.815   1.803   1.863 -1.1829  0.1655 -1.0535
   93DOPC  H12B12700   6.980   1.860   1.824 -0.1335  0.1581 -0.5826
   93DOPC   C1312701   7.006   1.731   1.581  0.7556  0.2189 -0.3712
   93DOPC  H13A12702   7.093   1.795   1.579  0.8214  0.1342 -0.2314
   93DOPC  H13B12703   7.039   1.638   1.625 -0.3090 -0.2702 -0.5616
   93DOPC  H13C12704   6.986   1.708   1.478  2.9488 -1.3974 -0.5170
   93DOPC   C1412705   6.851   1.925   1.623  0.0431 -0.0467 -0.4241
   93DOPC  H14A12706   6.763   1.946   1.681  0.8369 -0.4183  0.9674
   93DOPC  H14B12707   6.935   1.988   1.651  0.6536 -1.4739  1.2045
   93DOPC  H14C12708   6.823   1.926   1.519 -2.0966  0.2940  0.1089
   93DOPC   C1512709   6.762   1.690   1.627  0.1423 -0.1801 -0.3525
   93DOPC  H15A12710   6.784   1.592   1.668 -0.6326 -1.0789 -2.0019
   93DOPC  H15B12711   6.743   1.665   1.524  0.6080  2.0478 -1.0158
   93DOPC  H15C12712   6.677   1.730   1.679  0.9771  1.5417 -0.2635
   93DOPC   C1112713   6.978   1.653   1.873  0.4952 -0.2696 -0.0206
   93DOPC  H11A12714   7.075   1.637   1.822 -1.6247 -1.1185 -4.2433
   93DOPC  H11B12715   7.010   1.672   1.978  0.5959  1.5193 -0.3326
   93DOPC     P12716   6.782   1.483   1.951 -0.2747  0.1578 -0.1052
   93DOPC   O1312717   6.817   1.348   2.006 -0.2257 -0.5218  0.4771
   93DOPC   O1412718   6.655   1.496   1.878 -0.2472 -0.0597  0.3269
   93DOPC   O1212719   6.900   1.536   1.865  0.0905 -0.1063  0.0570
   93DOPC   O1112720   6.780   1.593   2.064 -0.2864  0.3732 -0.4512
   93DOPC    C112721   6.837   1.567   2.190  0.4200  0.5894 -0.7344
   93DOPC    HA12722   6.834   1.663   2.246  1.6531  1.4274 -2.0259
   93DOPC    HB12723   6.945   1.542   2.178  0.5547  0.9126 -0.2339
   93DOPC    C212724   6.751   1.467   2.274 -0.7132  0.3860 -0.0634
   93DOPC    HS12725   6.747   1.371   2.217  1.4557 -0.1787  0.6257
   93DOPC   O2112726   6.626   1.529   2.300  0.6042  0.1425  0.1434
   93DOPC   C2112727   6.541   1.445   2.356  0.0689 -0.0340  0.0207
   93DOPC   O2212728   6.552   1.322   2.359  0.4050 -0.1410 -0.3012
   93DOPC   C2212729   6.412   1.522   2.380  0.2603  0.2975 -0.9777
   93DOPC   H2R12730   6.342   1.490   2.300 -0.9003  0.5909 -0.1068
   93DOPC   H2S12731   6.430   1.631   2.374  0.0906  0.8329  3.9017
   93DOPC    C312732   6.817   1.444   2.407  0.4706 -0.0608 -0.3962
   93DOPC    HX12733   6.924   1.429   2.384  1.0155 -0.5301  2.1717
   93DOPC    HY12734   6.798   1.341   2.443  4.6757 -0.2345  1.9175
   93DOPC   O3112735   6.792   1.547   2.511  0.3318  0.2639 -0.2572
   93DOPC   C3112736   6.900   1.610   2.553 -1.0015 -0.1347  0.1712
   93DOPC   O3212737   7.013   1.593   2.515 -0.4986  0.0912  0.1502
   93DOPC   C3212738   6.858   1.729   2.650  0.1627 -0.9694  0.5458
   93DOPC   H2X12739   6.843   1.824   2.595 -0.7481 -1.4642 -0.0780
   93DOPC   H2Y12740   6.759   1.691   2.684 -0.4057 -1.9857 -2.0580
   93DOPC   C2312741   6.349   1.493   2.517  0.3021 -0.4990 -0.3084
   93DOPC   H3R12742   6.356   1.390   2.557 -0.7851 -1.1894 -1.8278
   93DOPC   H3S12743   6.247   1.528   2.490  0.8545  2.7612  1.2517
   93DOPC   C2412744   6.395   1.584   2.633 -0.0443  0.2731  0.3755
   93DOPC   H4R12745   6.373   1.688   2.600 -2.0846 -0.2757 -0.1016
   93DOPC   H4S12746   6.505   1.583   2.645  0.0481  3.9131  0.8912
   93DOPC   C2512747   6.342   1.557   2.774  0.4399 -0.4634 -0.2575
   93DOPC   H5R12748   6.416   1.598   2.846 -0.0533 -1.2664  0.7284
   93DOPC   H5S12749   6.341   1.446   2.776  0.7925 -0.4728  2.5571
   93DOPC   C2612750   6.209   1.603   2.803  0.0678 -0.2427 -0.4605
   93DOPC   H6R12751   6.136   1.536   2.753  0.7748 -0.5613 -1.0805
   93DOPC   H6S12752   6.200   1.703   2.755 -1.6066 -0.6232 -1.0255
   93DOPC   C2712753   6.169   1.615   2.951 -0.0358  0.2832 -0.5644
   93DOPC   H7R12754   6.201   1.712   2.994  1.3707 -0.9649  1.3485
   93DOPC   H7S12755   6.207   1.544   3.027 -2.7579 -0.6369  0.0434
   93DOPC   C2812756   6.016   1.613   2.975  0.1511 -0.2883  0.2996
   93DOPC   H8R12757   6.002   1.650   3.078  1.3005  1.0541  0.0084
   93DOPC   H8S12758   5.986   1.506   2.974  0.5356 -0.4748  2.7713
   93DOPC   C2912759   5.927   1.706   2.896 -0.6569  0.0626  0.0628
   93DOPC   H9R12760   5.975   1.761   2.813  0.6918  0.9105  1.3484
   93DOPC  C21012761   5.804   1.746   2.931  0.0952 -1.6840  0.1689
   93DOPC  H10R12762   5.757   1.818   2.862  0.9865 -1.4696 -0.2415
   93DOPC  C21112763   5.716   1.709   3.051  0.4317  0.0568  0.2957
   93DOPC  H11R12764   5.708   1.790   3.127 -1.4201  0.9908 -0.8061
   93DOPC  H11S12765   5.750   1.623   3.113 -0.2188 -1.5289 -1.4464
   93DOPC  C21212766   5.574   1.672   3.002  0.3014  0.1822  0.1291
   93DOPC  H12R12767   5.514   1.657   3.094 -2.7248  1.3905 -1.5125
   93DOPC  H12S12768   5.574   1.580   2.940 -2.6850 -0.2758  0.6722
   93DOPC  C21312769   5.513   1.779   2.910  0.3830 -0.0007 -0.3003
   93DOPC  H13R12770   5.406   1.754   2.895 -0.2449  0.2188  2.9171
   93DOPC  H13S12771   5.548   1.779   2.805 -2.6971 -1.6019 -1.4362
   93DOPC  C21412772   5.498   1.922   2.961 -0.3193  0.1123 -0.3899
   93DOPC  H14R12773   5.602   1.948   2.992 -0.1697 -1.1210  0.2082
   93DOPC  H14S12774   5.429   1.903   3.047 -0.8669  0.4877 -0.7376
   93DOPC  C21512775   5.416   2.006   2.864 -0.0131 -0.0047 -0.4700
   93DOPC  H15R12776   5.310   1.975   2.879  0.3220 -0.0901  2.4186
   93DOPC  H15S12777   5.446   1.971   2.763 -0.2108  1.2934 -0.9944
   93DOPC  C21612778   5.441   2.158   2.875 -0.2579 -0.1099 -0.3240
   93DOPC  H16R12779   5.551   2.164   2.885 -0.2526 -1.0048  0.2187
   93DOPC  H16S12780   5.388   2.209   2.958  1.2416 -1.3336  1.4448
   93DOPC  C21712781   5.410   2.238   2.749  0.3525 -0.3764 -0.8228
   93DOPC  H17R12782   5.468   2.210   2.658 -0.0351  1.4274 -1.6698
   93DOPC  H17S12783   5.420   2.348   2.759  2.1072 -0.5548 -0.3048
   93DOPC  C21812784   5.260   2.207   2.710  0.7653  0.8984 -0.3424
   93DOPC  H18R12785   5.188   2.254   2.780  0.1996  2.0516 -1.6435
   93DOPC  H18S12786   5.237   2.099   2.698 -2.3636  1.4958 -0.4816
   93DOPC  H18T12787   5.242   2.259   2.613 -0.4063  0.8996 -0.1418
   93DOPC   C3312788   6.956   1.757   2.769  0.4809 -0.6606  0.0366
   93DOPC   H3X12789   7.052   1.790   2.725  0.5584  1.9633  1.8622
   93DOPC   H3Y12790   6.973   1.664   2.827  1.2170  0.2980  1.4344
   93DOPC   C3412791   6.891   1.847   2.865 -0.2926  0.1036  0.0366
   93DOPC   H4X12792   6.797   1.808   2.910  0.4361 -0.3105  1.2295
   93DOPC   H4Y12793   6.868   1.943   2.812  0.5232  0.5050  0.4006
   93DOPC   C3512794   6.975   1.881   2.984  0.1625 -1.0545 -0.5472
   93DOPC   H5X12795   7.073   1.901   2.935 -0.4181 -0.9031 -1.6785
   93DOPC   H5Y12796   6.993   1.791   3.047 -2.4483 -0.6152  0.9415
   93DOPC   C3612797   6.936   2.009   3.067 -0.2706  0.2955  0.0453
   93DOPC   H6X12798   6.893   2.085   2.999  1.9983  1.4394 -0.2256
   93DOPC   H6Y12799   6.852   1.987   3.137  0.5257 -0.4054  0.8103
   93DOPC   C3712800   7.054   2.071   3.143 -0.2851  0.0878 -0.2531
   93DOPC   H7X12801   7.122   1.997   3.191  0.1659 -1.4289 -3.0526
   93DOPC   H7Y12802   7.119   2.124   3.071  0.3635  0.4621  0.5873
   93DOPC   C3812803   6.998   2.173   3.246 -0.0738 -0.1336  0.4256
   93DOPC   H8X12804   6.945   2.117   3.326  0.6839 -2.2188 -0.4665
   93DOPC   H8Y12805   6.912   2.224   3.197  1.4142  3.0465  0.8384
   93DOPC   C3912806   7.092   2.277   3.305  0.2332  0.6024 -0.4846
   93DOPC   H9X12807   7.161   2.327   3.236  0.4878 -0.9505 -1.3981
   93DOPC  C31012808   7.106   2.312   3.439 -0.0160 -0.1160 -0.2658
   93DOPC  H10X12809   7.194   2.375   3.461  0.4398 -0.3037 -1.4948
   93DOPC  C31112810   7.019   2.247   3.555 -0.5705  0.2197  0.5080
   93DOPC  H11X12811   7.039   2.139   3.566  1.1362  0.2609 -1.4949
   93DOPC  H11Y12812   6.913   2.248   3.521  0.3641  0.7053 -2.7724
   93DOPC  C31212813   7.035   2.319   3.691 -0.6518 -0.1701  0.3947
   93DOPC  H12X12814   7.137   2.298   3.729 -0.0450  0.0004 -1.0575
   93DOPC  H12Y12815   6.964   2.271   3.762  0.6474  0.0119  1.8665
   93DOPC  C31312816   7.008   2.465   3.677 -0.9046  0.5165  0.0586
   93DOPC  H13X12817   7.082   2.510   3.608 -2.5162  0.4427 -1.8025
   93DOPC  H13Y12818   6.906   2.487   3.639 -0.9666  0.7451  0.3474
   93DOPC  C31412819   7.027   2.546   3.807 -0.3563 -0.3354 -0.2329
   93DOPC  H14X12820   7.004   2.648   3.770 -1.4216 -0.0061  1.2499
   93DOPC  H14Y12821   6.952   2.518   3.884 -2.0486 -2.4974 -2.5263
   93DOPC  C31512822   7.171   2.547   3.858 -0.5089  0.5846 -0.3656
   93DOPC  H15X12823   7.246   2.568   3.778  1.0982 -0.1615  0.8790
   93DOPC  H15Y12824   7.198   2.441   3.877 -0.7551  0.1987 -1.9678
   93DOPC  C31612825   7.205   2.639   3.975 -0.0896 -0.9778 -0.6105
   93DOPC  H16X12826   7.148   2.627   4.070  1.0248  3.4993  0.8782
   93DOPC  H16Y12827   7.309   2.611   4.002  0.6322 -0.4438 -2.6931
   93DOPC  C31712828   7.193   2.789   3.946  0.0361  0.3800 -0.5734
   93DOPC  H17X12829   7.234   2.807   3.844  1.8773 -1.1905 -0.1751
   93DOPC  H17Y12830   7.085   2.815   3.940  0.0088  0.2470 -0.6711
   93DOPC  C31812831   7.251   2.876   4.054 -0.4268  0.3920  0.1948
   93DOPC  H18X12832   7.197   2.972   4.063  0.1768  0.7122  0.4433
   93DOPC  H18Y12833   7.254   2.831   4.156 -2.6507  5.1872  2.6813
   93DOPC  H18Z12834   7.357   2.892   4.024 -0.6749  2.2463  0.2101
   94DOPC     N12835   6.252   2.533   1.851 -0.1600 -0.2719  0.5979
   94DOPC   C1212836   6.099   2.538   1.853 -0.3075  0.1631 -0.3050
   94DOPC  H12A12837   6.067   2.592   1.765  1.4963  0.7933 -0.6183
   94DOPC  H12B12838   6.074   2.585   1.947  2.4957 -0.9482  1.1010
   94DOPC   C1312839   6.301   2.439   1.737 -0.1025  0.1562 -0.0611
   94DOPC  H13A12840   6.271   2.469   1.638  2.5027  1.9329 -0.4326
   94DOPC  H13B12841   6.409   2.436   1.740 -0.0065 -0.3211 -2.2286
   94DOPC  H13C12842   6.264   2.341   1.761 -0.1562  0.6146  1.8965
   94DOPC   C1412843   6.311   2.483   1.976  0.0935  0.4602  0.3330
   94DOPC  H14A12844   6.271   2.539   2.059 -0.3939 -1.7607  1.6577
   94DOPC  H14B12845   6.287   2.378   1.981 -1.1997  0.3669 -3.8624
   94DOPC  H14C12846   6.418   2.495   1.969 -0.0596  1.6096 -0.3930
   94DOPC   C1512847   6.298   2.676   1.822  0.2290 -0.1524 -0.2248
   94DOPC  H15A12848   6.406   2.676   1.820  0.2406  0.4407 -0.0720
   94DOPC  H15B12849   6.276   2.741   1.906 -0.4355  0.4290 -0.8416
   94DOPC  H15C12850   6.253   2.726   1.738 -0.9876 -0.7354  0.0721
   94DOPC   C1112851   6.018   2.402   1.881  0.2845  0.1444 -0.0363
   94DOPC  H11A12852   5.912   2.423   1.858  0.3735 -1.0736 -1.7406
   94DOPC  H11B12853   6.062   2.332   1.807  0.0199 -1.5638  1.3727
   94DOPC     P12854   5.952   2.432   2.124 -0.2939  0.4807  0.1148
   94DOPC   O1312855   5.807   2.399   2.114 -0.2170  0.2004  0.1601
   94DOPC   O1412856   5.999   2.573   2.139 -0.0320 -0.3175  0.5116
   94DOPC   O1212857   6.034   2.347   2.015  0.0195 -0.1662  0.3029
   94DOPC   O1112858   6.004   2.367   2.263 -1.3344 -0.1877  0.2927
   94DOPC    C112859   6.140   2.328   2.276  0.1548  0.1740  0.0100
   94DOPC    HA12860   6.208   2.406   2.237 -0.7120  1.0148  0.1578
   94DOPC    HB12861   6.144   2.234   2.216 -0.1649  0.2721 -0.1649
   94DOPC    C212862   6.180   2.304   2.418  0.0406  0.4193 -0.1135
   94DOPC    HS12863   6.289   2.282   2.412 -0.3142 -1.7258  0.7036
   94DOPC   O2112864   6.108   2.194   2.478 -0.1130  0.1655 -0.2421
   94DOPC   C2112865   6.153   2.074   2.452  0.4696  0.4403 -0.2120
   94DOPC   O2212866   6.253   2.047   2.386 -0.3805  0.5623  0.5139
   94DOPC   C2212867   6.071   1.959   2.519 -0.3401 -0.3635 -0.7337
   94DOPC   H2R12868   5.967   1.996   2.531 -0.2327  0.0223 -0.9590
   94DOPC   H2S12869   6.106   1.949   2.624 -1.1511  2.1164 -0.1600
   94DOPC    C312870   6.160   2.443   2.489  0.0005  0.9492 -0.0948
   94DOPC    HX12871   6.052   2.462   2.503  0.2181  0.5108  2.9529
   94DOPC    HY12872   6.216   2.514   2.425  0.3580  2.2224  1.5886
   94DOPC   O3112873   6.230   2.433   2.616 -0.1308 -0.0898 -0.1881
   94DOPC   C3112874   6.198   2.523   2.704 -0.2121  0.4601  0.0314
   94DOPC   O3212875   6.113   2.611   2.688  0.2614  0.3637 -0.1641
   94DOPC   C3212876   6.285   2.496   2.835  0.6085 -0.8756  0.0153
   94DOPC   H2X12877   6.221   2.526   2.921  0.5858  1.6000 -0.7966
   94DOPC   H2Y12878   6.302   2.387   2.850  1.3865 -0.5472  1.7666
   94DOPC   C2312879   6.071   1.836   2.432 -0.1446  0.3386  0.0864
   94DOPC   H3R12880   6.171   1.787   2.439 -1.3662 -2.1580  1.1318
   94DOPC   H3S12881   6.032   1.849   2.328  1.1192 -0.2612 -0.4837
   94DOPC   C2412882   5.994   1.723   2.505 -0.0789  0.1252  0.1739
   94DOPC   H4R12883   6.036   1.714   2.608  1.1787 -0.5552 -0.3670
   94DOPC   H4S12884   6.023   1.628   2.454  1.0429  1.6259 -2.1535
   94DOPC   C2512885   5.846   1.753   2.510 -0.7194 -0.8606  0.1607
   94DOPC   H5R12886   5.803   1.783   2.412  1.5865  1.7143 -0.2042
   94DOPC   H5S12887   5.826   1.839   2.577 -1.8459 -0.7410 -0.3109
   94DOPC   C2612888   5.760   1.640   2.571  0.0046  0.3403 -0.4768
   94DOPC   H6R12889   5.652   1.664   2.560  0.3433  1.8795 -0.6523
   94DOPC   H6S12890   5.792   1.629   2.676 -0.3885 -0.0891 -0.4015
   94DOPC   C2712891   5.782   1.506   2.506 -0.6830  0.2187 -0.4389
   94DOPC   H7R12892   5.888   1.475   2.496 -1.0910 -0.7368 -2.2673
   94DOPC   H7S12893   5.742   1.510   2.402 -0.1988 -1.7574 -0.7398
   94DOPC   C2812894   5.696   1.402   2.573 -0.7501 -0.5233  0.0884
   94DOPC   H8R12895   5.696   1.325   2.492  1.0808  0.8219 -1.3020
   94DOPC   H8S12896   5.594   1.438   2.598 -1.0975 -2.5968  1.9054
   94DOPC   C2912897   5.767   1.341   2.694 -0.0115 -0.2428 -0.9275
   94DOPC   H9R12898   5.876   1.358   2.689 -0.0068 -0.1636 -0.5736
   94DOPC  C21012899   5.704   1.275   2.795 -0.5824 -1.0050  0.6386
   94DOPC  H10R12900   5.768   1.221   2.867 -2.2791 -2.1421  1.3663
   94DOPC  C21112901   5.555   1.262   2.817  0.2604 -0.3872 -0.8532
   94DOPC  H11R12902   5.523   1.165   2.774  0.6677 -0.8964 -0.0307
   94DOPC  H11S12903   5.503   1.337   2.754 -1.2077  0.0004  0.7226
   94DOPC  C21212904   5.524   1.258   2.971 -0.0722  0.1341 -0.7942
   94DOPC  H12R12905   5.561   1.349   3.022  2.4264 -1.0001 -0.4001
   94DOPC  H12S12906   5.577   1.180   3.030 -1.2503  0.8596  1.3229
   94DOPC  C21312907   5.370   1.262   2.993  0.1538 -0.5843  0.8640
   94DOPC  H13R12908   5.316   1.172   2.955 -0.3061 -0.3634  0.9910
   94DOPC  H13S12909   5.345   1.356   2.939 -1.3819 -1.1730  0.4927
   94DOPC  C21412910   5.336   1.285   3.136  0.0188 -0.9499 -0.2475
   94DOPC  H14R12911   5.350   1.390   3.170 -0.0958 -1.0029 -0.0391
   94DOPC  H14S12912   5.404   1.228   3.202 -0.5206  0.2230  1.3713
   94DOPC  C21512913   5.187   1.257   3.169  0.3591  0.8302  0.0065
   94DOPC  H15R12914   5.153   1.161   3.125 -0.0344  0.7136  0.5550
   94DOPC  H15S12915   5.133   1.340   3.117 -2.1930  0.8709  2.4659
   94DOPC  C21612916   5.166   1.271   3.314 -0.7192 -0.6814  0.0358
   94DOPC  H16R12917   5.057   1.286   3.331 -0.7946 -0.0717 -0.9508
   94DOPC  H16S12918   5.211   1.360   3.363 -0.1734 -1.0908  0.2850
   94DOPC  C21712919   5.198   1.149   3.398  0.6534  0.5548 -0.3548
   94DOPC  H17R12920   5.306   1.124   3.398  0.4701 -0.2811 -0.5270
   94DOPC  H17S12921   5.155   1.061   3.345 -0.8947  0.1024  1.5352
   94DOPC  C21812922   5.146   1.157   3.537  0.1671 -0.2563 -0.0563
   94DOPC  H18R12923   5.177   1.244   3.598 -0.9696 -0.7230  1.2345
   94DOPC  H18S12924   5.175   1.071   3.601  2.8296  1.3560  1.0841
   94DOPC  H18T12925   5.036   1.156   3.522  0.3129  0.2597 -1.3455
   94DOPC   C3312926   6.414   2.575   2.857  0.4424 -0.2315 -0.6849
   94DOPC   H3X12927   6.382   2.680   2.839  1.7955  0.1482 -0.9929
   94DOPC   H3Y12928   6.490   2.535   2.786  0.5915 -1.1263 -0.0338
   94DOPC   C3412929   6.462   2.570   3.005 -0.1193  0.2933  0.4405
   94DOPC   H4X12930   6.376   2.570   3.074 -0.0918 -1.9764  0.5288
   94DOPC   H4Y12931   6.531   2.657   3.018 -1.5928  1.9145 -1.8265
   94DOPC   C3512932   6.536   2.435   3.046 -0.0594  0.2668  0.1955
   94DOPC   H5X12933   6.633   2.420   2.994  0.1262  1.0712  0.2866
   94DOPC   H5Y12934   6.468   2.352   3.020  0.7077 -0.3274  0.0531
   94DOPC   C3612935   6.558   2.434   3.192 -0.3400 -0.7651 -0.3417
   94DOPC   H6X12936   6.475   2.489   3.241 -0.1652 -0.5409 -0.2956
   94DOPC   H6Y12937   6.571   2.331   3.231 -0.5484 -0.1879  1.3144
   94DOPC   C3712938   6.680   2.517   3.235  0.4867  0.4439 -0.1304
   94DOPC   H7X12939   6.772   2.467   3.196 -0.4384 -1.8686  0.5080
   94DOPC   H7Y12940   6.671   2.616   3.186  0.9881  0.5983  0.0837
   94DOPC   C3812941   6.675   2.539   3.384  0.0149 -0.0100  0.5673
   94DOPC   H8X12942   6.579   2.591   3.408  0.4143  1.1167 -0.1744
   94DOPC   H8Y12943   6.761   2.606   3.404 -0.4416  0.4749  0.9421
   94DOPC   C3912944   6.693   2.411   3.457 -0.6864 -0.0525 -0.4538
   94DOPC   H9X12945   6.746   2.331   3.404 -0.8159 -0.4776  0.0571
   94DOPC  C31012946   6.637   2.391   3.582  0.8268  0.2884  0.2276
   94DOPC  H10X12947   6.647   2.290   3.623  0.2639 -0.3040 -1.0457
   94DOPC  C31112948   6.550   2.485   3.661 -0.1341 -0.5428  0.8177
   94DOPC  H11X12949   6.540   2.588   3.621  0.5411 -0.6111  0.4589
   94DOPC  H11Y12950   6.612   2.489   3.753  1.6658 -1.4072 -0.2964
   94DOPC  C31212951   6.409   2.437   3.683 -0.0386 -0.2128 -0.0251
   94DOPC  H12X12952   6.363   2.515   3.748  1.3483  0.3064  0.3600
   94DOPC  H12Y12953   6.413   2.335   3.728  0.4207 -2.0459 -3.8038
   94DOPC  C31312954   6.321   2.430   3.560  0.7706 -0.4624 -0.3369
   94DOPC  H13X12955   6.345   2.514   3.492 -0.7389  2.1901  2.1547
   94DOPC  H13Y12956   6.341   2.338   3.501  0.2138  0.8152 -2.6257
   94DOPC  C31412957   6.174   2.442   3.596 -0.0367  0.2836 -0.0901
   94DOPC  H14X12958   6.149   2.347   3.649 -2.5703 -2.1424 -4.8968
   94DOPC  H14Y12959   6.162   2.533   3.658  1.3471  0.8583 -0.6266
   94DOPC  C31512960   6.091   2.437   3.464  0.0213  0.2815  1.2905
   94DOPC  H15X12961   6.105   2.334   3.423  0.1713  1.2391 -1.2202
   94DOPC  H15Y12962   6.133   2.515   3.398 -0.1584  0.0034  0.8431
   94DOPC  C31612963   5.941   2.484   3.481 -0.5836 -0.4149 -0.3140
   94DOPC  H16X12964   5.931   2.594   3.493 -1.1422 -0.4555 -0.3605
   94DOPC  H16Y12965   5.895   2.466   3.382 -1.3332  0.7893 -0.2027
   94DOPC  C31712966   5.874   2.410   3.596  0.0103 -0.5608  0.6328
   94DOPC  H17X12967   5.886   2.454   3.697  0.1821 -0.3529  0.5238
   94DOPC  H17Y12968   5.766   2.428   3.578 -0.0360 -1.2294  0.1806
   94DOPC  C31812969   5.888   2.255   3.605  0.5445  1.1400  0.0690
   94DOPC  H18X12970   5.861   2.210   3.506  3.7881 -1.9451  0.3764
   94DOPC  H18Y12971   5.979   2.205   3.643 -0.8226  0.1316  2.2012
   94DOPC  H18Z12972   5.822   2.214   3.685  2.2148 -0.6740  0.6105
   95DOPC     N12973   1.173   1.118   2.225  0.0587 -0.2570  0.1998
   95DOPC   C1212974   1.280   1.117   2.337  0.3021 -0.1339  0.2013
   95DOPC  H12A12975   1.307   1.019   2.373  3.1422  1.3271  2.5903
   95DOPC  H12B12976   1.228   1.160   2.422  0.9858 -1.1229  1.1553
   95DOPC   C1312977   1.119   1.260   2.220  0.1060  0.0050 -0.7006
   95DOPC  H13A12978   1.049   1.253   2.138 -1.4136  2.9986  0.2075
   95DOPC  H13B12979   1.076   1.292   2.314  0.2211  1.1840 -1.0319
   95DOPC  H13C12980   1.198   1.328   2.192  1.2158 -1.1213 -0.3999
   95DOPC   C1412981   1.068   1.029   2.274 -0.0296 -0.7533 -0.1424
   95DOPC  H14A12982   1.103   0.927   2.268 -0.1040 -0.6997 -2.5199
   95DOPC  H14B12983   1.058   1.046   2.380 -0.5380 -2.6682  0.1583
   95DOPC  H14C12984   0.971   1.045   2.228 -0.1543 -1.3730 -0.1027
   95DOPC   C1512985   1.216   1.070   2.090  0.9159 -0.1938 -0.3651
   95DOPC  H15A12986   1.270   0.976   2.096 -0.1344 -0.7460  1.2267
   95DOPC  H15B12987   1.289   1.137   2.046 -0.7636  2.5394  0.7663
   95DOPC  H15C12988   1.138   1.065   2.016  0.7439 -1.8347 -0.1264
   95DOPC   C1112989   1.403   1.201   2.310 -0.3733 -1.2404 -0.7096
   95DOPC  H11A12990   1.381   1.307   2.283  0.4687 -1.0810 -0.7877
   95DOPC  H11B12991   1.471   1.206   2.397  0.7380 -1.3543 -1.5537
   95DOPC     P12992   1.584   1.032   2.221 -0.0390  0.2110  0.3165
   95DOPC   O1312993   1.690   1.081   2.308  0.2610  0.2556 -0.0539
   95DOPC   O1412994   1.631   0.991   2.088  0.1002  0.3348  0.1680
   95DOPC   O1212995   1.479   1.152   2.200  0.1952 -0.2074  0.7417
   95DOPC   O1112996   1.501   0.915   2.301  0.1124 -0.5436  0.4136
   95DOPC    C112997   1.584   0.812   2.354  0.9622  0.2030 -0.0525
   95DOPC    HA12998   1.673   0.854   2.406  1.1550 -0.9807  0.6180
   95DOPC    HB12999   1.623   0.740   2.279 -0.9095 -2.1082  1.0576
   95DOPC    C213000   1.517   0.722   2.462 -0.3484  0.2379  0.0837
   95DOPC    HS13001   1.413   0.705   2.427  0.1921  0.3572 -1.7014
   95DOPC   O2113002   1.509   0.790   2.587  0.0781 -0.1849 -0.4942
   95DOPC   C2113003   1.416   0.883   2.600 -0.3734  0.3824  0.0996
   95DOPC   O2213004   1.319   0.904   2.531 -0.5204  0.5321  0.5209
   95DOPC   C2213005   1.448   0.955   2.729 -0.4171  0.0964  0.2282
   95DOPC   H2R13006   1.437   1.064   2.710  2.7669  0.0955 -2.6813
   95DOPC   H2S13007   1.558   0.942   2.739 -0.3189 -0.5350 -1.2624
   95DOPC    C313008   1.587   0.587   2.492  0.9974 -0.5779 -1.0809
   95DOPC    HX13009   1.691   0.612   2.521  0.9367  0.1800 -1.5006
   95DOPC    HY13010   1.582   0.528   2.398 -3.4095 -1.2305 -0.6341
   95DOPC   O3113011   1.516   0.511   2.594 -0.1631  0.4191  0.6288
   95DOPC   C3113012   1.412   0.446   2.560 -0.2208 -0.3479 -0.1690
   95DOPC   O3213013   1.343   0.464   2.462  0.1259 -0.4882  0.0103
   95DOPC   C3213014   1.379   0.336   2.657  0.3669  0.0618 -0.0105
   95DOPC   H2X13015   1.326   0.257   2.599  0.2066  0.3862 -0.3055
   95DOPC   H2Y13016   1.476   0.292   2.689  1.1879  0.8160 -1.3524
   95DOPC   C2313017   1.351   0.924   2.843 -0.5552 -0.2013 -0.4256
   95DOPC   H3R13018   1.247   0.920   2.803  0.6295 -1.5483 -3.7027
   95DOPC   H3S13019   1.349   1.003   2.921 -0.8650 -0.3208 -0.3093
   95DOPC   C2413020   1.392   0.795   2.921 -0.2907 -0.2397 -0.2823
   95DOPC   H4R13021   1.501   0.791   2.939 -0.5576 -1.4537  1.2740
   95DOPC   H4S13022   1.363   0.706   2.861 -0.2999 -1.0202  0.8543
   95DOPC   C2513023   1.322   0.768   3.055 -0.8887 -0.4803  0.5344
   95DOPC   H5R13024   1.347   0.852   3.124 -0.4434  0.9625 -1.3188
   95DOPC   H5S13025   1.347   0.669   3.099  0.1947 -2.4319 -3.9561
   95DOPC   C2613026   1.168   0.761   3.032 -0.3654 -0.1942 -0.6278
   95DOPC   H6R13027   1.141   0.692   2.950 -0.9825 -1.2307  0.4217
   95DOPC   H6S13028   1.123   0.859   3.004 -1.9898 -1.1328 -1.4177
   95DOPC   C2713029   1.098   0.715   3.156  0.3401  0.6490 -0.1518
   95DOPC   H7R13030   0.991   0.731   3.128 -0.2414 -2.3802  0.0088
   95DOPC   H7S13031   1.119   0.774   3.248  0.7573  2.3818 -1.3008
   95DOPC   C2813032   1.102   0.564   3.189  0.4418  0.1178  0.3129
   95DOPC   H8R13033   1.204   0.539   3.224  0.3157  1.9999  2.1726
   95DOPC   H8S13034   1.082   0.507   3.095 -0.2597 -1.1525  1.2052
   95DOPC   C2913035   1.001   0.517   3.293  0.2770 -0.4494 -0.3186
   95DOPC   H9R13036   0.898   0.494   3.262 -0.4709 -0.1835  1.8057
   95DOPC  C21013037   1.027   0.501   3.424 -0.3546  0.0936  0.5527
   95DOPC  H10R13038   0.940   0.459   3.476 -0.9163  0.1403 -0.3230
   95DOPC  C21113039   1.161   0.519   3.489  0.1787  0.2467 -0.0125
   95DOPC  H11R13040   1.196   0.616   3.448  3.5297 -1.0078 -0.4370
   95DOPC  H11S13041   1.229   0.432   3.476 -0.1738  0.0009 -0.2397
   95DOPC  C21213042   1.156   0.537   3.638 -0.1935  0.3478 -0.7439
   95DOPC  H12R13043   1.074   0.607   3.667  0.4625  0.3709  1.2315
   95DOPC  H12S13044   1.238   0.609   3.659  1.5352 -1.5565 -0.6905
   95DOPC  C21313045   1.158   0.408   3.724 -0.5046 -0.2685  0.6495
   95DOPC  H13R13046   1.252   0.354   3.699  0.0066  0.5037  0.8637
   95DOPC  H13S13047   1.071   0.347   3.693  0.7304 -1.1977 -1.1833
   95DOPC  C21413048   1.145   0.434   3.877  0.5885 -0.8854  0.3502
   95DOPC  H14R13049   1.049   0.486   3.901 -0.0420 -1.1639 -1.3790
   95DOPC  H14S13050   1.231   0.499   3.903  0.6383  0.1116 -1.9959
   95DOPC  C21513051   1.151   0.303   3.957 -0.1565  0.1024  0.5675
   95DOPC  H15R13052   1.241   0.244   3.932 -1.3644 -2.2453  1.3724
   95DOPC  H15S13053   1.055   0.258   3.923 -1.9774  3.8821  0.1090
   95DOPC  C21613054   1.145   0.326   4.111  0.2022 -0.1014  0.4341
   95DOPC  H16R13055   1.198   0.421   4.131  0.6984 -0.4613  0.8671
   95DOPC  H16S13056   1.189   0.241   4.168  0.3922 -1.2202 -1.3148
   95DOPC  C21713057   0.995   0.338   4.168 -0.9343  0.2896  0.7395
   95DOPC  H17R13058   0.940   0.254   4.120  0.9260 -0.7680  0.3854
   95DOPC  H17S13059   0.948   0.428   4.124 -1.5221 -0.0088  0.7391
   95DOPC  C21813060   0.983   0.345   4.316 -0.3716  0.7848 -0.4020
   95DOPC  H18R13061   0.987   0.246   4.365 -1.2165  0.8210 -0.2437
   95DOPC  H18S13062   0.880   0.382   4.337 -1.3414 -1.2389 -1.3674
   95DOPC  H18T13063   1.058   0.416   4.357  1.4265 -1.1286 -0.2644
   95DOPC   C3313064   1.289   0.368   2.777  0.0596 -0.1419 -0.4670
   95DOPC   H3X13065   1.199   0.408   2.725  1.0352 -0.2221 -2.3192
   95DOPC   H3Y13066   1.331   0.448   2.842  0.2088  0.3575 -1.1550
   95DOPC   C3413067   1.234   0.239   2.849 -0.1557 -0.2941 -0.5966
   95DOPC   H4X13068   1.312   0.163   2.872 -2.0167 -2.1192 -0.0586
   95DOPC   H4Y13069   1.156   0.197   2.782  0.0557  1.4074 -1.9807
   95DOPC   C3513070   1.176   0.264   2.985  0.6325 -0.4324 -0.0002
   95DOPC   H5X13071   1.089   0.332   2.967  1.4917  0.4891 -0.7636
   95DOPC   H5Y13072   1.238   0.325   3.054 -1.8080  1.7209  0.4610
   95DOPC   C3613073   1.138   0.131   3.052 -0.1183 -0.6869  0.2438
   95DOPC   H6X13074   1.092   0.059   2.980  1.7986 -0.7608 -0.9750
   95DOPC   H6Y13075   1.236   0.085   3.074  0.6909  0.4495 -0.8225
   95DOPC   C3713076   1.058   0.153   3.185 -0.5229 -0.8440  0.1320
   95DOPC   H7X13077   1.121   0.222   3.245 -2.1746 -1.0872  2.2389
   95DOPC   H7Y13078   0.968   0.216   3.166  0.5244  0.3251 -1.2441
   95DOPC   C3813079   1.035   0.029   3.269 -0.2439  0.1399  0.7306
   95DOPC   H8X13080   1.131  -0.027   3.261 -1.1335 -1.4049  0.4166
   95DOPC   H8Y13081   0.957  -0.036   3.224  0.1629  2.2107 -3.5088
   95DOPC   C3913082   0.999   0.071   3.409 -0.1996  0.5677 -0.4034
   95DOPC   H9X13083   0.928   0.155   3.412  0.9948  1.6098 -0.4984
   95DOPC  C31013084   1.058   0.034   3.525 -0.4384 -0.2565 -0.3848
   95DOPC  H10X13085   1.024   0.082   3.617  2.0723  1.4720 -0.2635
   95DOPC  C31113086   1.164  -0.071   3.544  0.6957  0.1857 -0.2333
   95DOPC  H11X13087   1.253  -0.026   3.593 -0.5517  0.8536  1.5136
   95DOPC  H11Y13088   1.187  -0.104   3.441 -1.6508  3.0108 -1.8063
   95DOPC  C31213089   1.119  -0.188   3.639  0.1768  0.0447  0.3999
   95DOPC  H12X13090   1.023  -0.237   3.614  1.2955 -1.7489 -0.6126
   95DOPC  H12Y13091   1.129  -0.154   3.744  1.4425 -3.2181  1.4594
   95DOPC  C31313092   1.211  -0.306   3.608  1.0783  0.2728 -0.3172
   95DOPC  H13X13093   1.164  -0.385   3.672  0.9799  1.4862  1.1664
   95DOPC  H13Y13094   1.199  -0.320   3.499 -0.6693  1.1803 -0.2834
   95DOPC  C31413095   1.353  -0.284   3.655 -0.5137  0.3260 -0.0766
   95DOPC  H14X13096   1.390  -0.188   3.612 -0.0753  0.0713 -0.2748
   95DOPC  H14Y13097   1.347  -0.273   3.765 -0.4210  0.2638 -0.0657
   95DOPC  C31513098   1.449  -0.397   3.613  0.4737  0.4426  0.2823
   95DOPC  H15X13099   1.472  -0.400   3.504 -1.1516 -2.0564 -0.0734
   95DOPC  H15Y13100   1.399  -0.496   3.617  0.0101  0.6888  0.7726
   95DOPC  C31613101   1.579  -0.403   3.696 -0.3507 -0.1727  0.0059
   95DOPC  H16X13102   1.540  -0.408   3.800 -2.2079  0.4357 -0.6173
   95DOPC  H16Y13103   1.634  -0.497   3.673 -1.5396 -0.7208 -0.6815
   95DOPC  C31713104   1.660  -0.275   3.703 -0.3453  0.3943 -0.1887
   95DOPC  H17X13105   1.601  -0.184   3.726  1.4604  1.6288 -0.1719
   95DOPC  H17Y13106   1.732  -0.279   3.788  1.2311 -1.4465 -1.5328
   95DOPC  C31813107   1.736  -0.248   3.577  0.1905 -0.3800 -0.5537
   95DOPC  H18X13108   1.817  -0.174   3.596 -0.1565  0.1544 -1.1219
   95DOPC  H18Y13109   1.775  -0.340   3.529  1.3538 -0.7269  0.9597
   95DOPC  H18Z13110   1.678  -0.204   3.493 -0.3715 -0.5657 -0.2702
   96DOPC     N13111   3.035   5.954   1.674  0.4256 -0.0937 -0.2459
   96DOPC   C1213112   2.957   5.820   1.687 -0.6007  0.4023 -0.3456
   96DOPC  H12A13113   3.016   5.732   1.669 -2.5128 -0.8044 -1.0733
   96DOPC  H12B13114   2.893   5.816   1.600  0.1491  2.8060 -1.0635
   96DOPC   C1313115   3.135   5.978   1.778 -0.1820 -0.2366 -0.6110
   96DOPC  H13A13116   3.216   5.907   1.768 -0.5322 -0.4069 -2.5062
   96DOPC  H13B13117   3.160   6.083   1.772  0.5080 -0.1632  2.1556
   96DOPC  H13C13118   3.104   5.971   1.881  0.0396  3.1391 -0.2089
   96DOPC   C1413119   2.936   6.065   1.697  0.0786 -0.3430 -0.3216
   96DOPC  H14A13120   2.990   6.156   1.675  2.2341 -1.6225 -0.5592
   96DOPC  H14B13121   2.843   6.061   1.641  0.7080 -1.2942 -1.3368
   96DOPC  H14C13122   2.919   6.078   1.803  0.4035  2.2250 -0.5246
   96DOPC   C1513123   3.100   5.969   1.543 -0.2796  0.3717 -0.5644
   96DOPC  H15A13124   3.029   5.956   1.462  0.2601  2.0367 -1.3586
   96DOPC  H15B13125   3.179   5.898   1.523  3.8239  3.8175  1.6297
   96DOPC  H15C13126   3.159   6.058   1.525  0.6567 -0.4250 -1.5909
   96DOPC   C1113127   2.880   5.790   1.816  0.3290 -0.3701  0.6340
   96DOPC  H11A13128   2.800   5.866   1.823  0.0301 -0.5405 -0.6101
   96DOPC  H11B13129   2.813   5.702   1.801  2.1844 -1.7093 -0.2331
   96DOPC     P13130   3.028   5.648   1.972 -0.0047 -0.3421  0.1529
   96DOPC   O1313131   3.175   5.658   1.967  0.6022  0.7272 -0.1444
   96DOPC   O1413132   2.963   5.538   1.904  0.4561  0.1870 -0.8459
   96DOPC   O1213133   2.962   5.779   1.929  0.0096  0.1533  0.5749
   96DOPC   O1113134   2.980   5.628   2.114 -0.8774  0.2708 -0.6140
   96DOPC    C113135   3.018   5.721   2.217  0.2524 -0.6577 -0.0506
   96DOPC    HA13136   2.951   5.809   2.200  0.9003  0.0837  1.1539
   96DOPC    HB13137   3.125   5.748   2.212  0.3243 -0.6434  1.3648
   96DOPC    C213138   2.996   5.674   2.359  0.5851  0.6974 -0.8592
   96DOPC    HS13139   3.045   5.575   2.364 -0.5582  0.2065  1.8797
   96DOPC   O2113140   2.857   5.675   2.392 -0.6397  0.2213  0.3306
   96DOPC   C2113141   2.803   5.556   2.386  0.7972 -0.7117 -0.6795
   96DOPC   O2213142   2.857   5.449   2.361  0.1001 -0.4291 -0.8252
   96DOPC   C2213143   2.651   5.578   2.418  0.9030  0.2978  0.1318
   96DOPC   H2R13144   2.602   5.523   2.334 -1.5239  1.8083  0.4638
   96DOPC   H2S13145   2.611   5.681   2.410 -1.4941 -0.5574  0.2826
   96DOPC    C313146   3.065   5.753   2.471  0.4071 -0.6901  0.4334
   96DOPC    HX13147   3.041   5.860   2.454  1.7137 -0.6622 -1.6574
   96DOPC    HY13148   3.176   5.751   2.470  0.4019 -0.9968  0.1980
   96DOPC   O3113149   3.007   5.714   2.601 -0.1648  0.2263  0.1893
   96DOPC   C3113150   3.080   5.612   2.662  0.2126 -0.3994 -0.0386
   96DOPC   O3213151   3.172   5.557   2.606  0.9112 -0.2815  0.7309
   96DOPC   C3213152   3.020   5.577   2.795 -0.0751  0.0184  0.1615
   96DOPC   H2X13153   2.969   5.670   2.830 -0.1745 -0.0011  0.0666
   96DOPC   H2Y13154   2.955   5.490   2.770  1.8347 -0.8049 -2.2284
   96DOPC   C2313155   2.596   5.528   2.557 -0.2828 -0.2578  0.5640
   96DOPC   H3R13156   2.634   5.424   2.560  1.7270  0.3178 -1.5860
   96DOPC   H3S13157   2.486   5.524   2.568 -0.1468  0.5202  2.4939
   96DOPC   C2413158   2.652   5.605   2.679 -0.2394  0.8555 -0.1639
   96DOPC   H4R13159   2.642   5.714   2.656  0.5576  0.6872 -1.4157
   96DOPC   H4S13160   2.757   5.577   2.703 -0.5891 -0.0396  0.3803
   96DOPC   C2513161   2.574   5.576   2.806  0.0153  0.3660  0.0979
   96DOPC   H5R13162   2.551   5.468   2.819  0.7139  0.2518  0.4392
   96DOPC   H5S13163   2.475   5.622   2.783 -0.3574  0.2693  1.4350
   96DOPC   C2613164   2.637   5.645   2.923 -0.5354 -0.1364 -0.0935
   96DOPC   H6R13165   2.615   5.754   2.923 -1.4955 -0.2659  2.4281
   96DOPC   H6S13166   2.747   5.630   2.920 -0.7632 -2.0191  0.0760
   96DOPC   C2713167   2.588   5.584   3.055 -0.1350  0.5219 -0.3733
   96DOPC   H7R13168   2.594   5.473   3.049  1.6383  0.6812 -3.3257
   96DOPC   H7S13169   2.487   5.620   3.084  0.0550  1.8449 -1.3018
   96DOPC   C2813170   2.684   5.631   3.169 -0.0433  0.2572 -0.7150
   96DOPC   H8R13171   2.699   5.740   3.151 -0.0125  0.3765 -0.0072
   96DOPC   H8S13172   2.781   5.579   3.160 -1.1802 -2.1140 -0.0763
   96DOPC   C2913173   2.626   5.608   3.305 -0.0132  0.2237 -0.2430
   96DOPC   H9R13174   2.543   5.674   3.333  0.4296 -0.2218  2.4199
   96DOPC  C21013175   2.674   5.529   3.410  0.2407  0.3807  0.0172
   96DOPC  H10R13176   2.618   5.545   3.503  1.9026  1.0006  0.9548
   96DOPC  C21113177   2.785   5.427   3.403  0.8083 -0.0052 -0.6564
   96DOPC  H11R13178   2.825   5.434   3.299  0.8611  0.7209 -0.5963
   96DOPC  H11S13179   2.744   5.325   3.421  1.6706 -0.4246 -1.0195
   96DOPC  C21213180   2.896   5.449   3.503 -0.3174 -0.1229  0.2406
   96DOPC  H12R13181   2.933   5.553   3.486  0.5848 -0.6087 -0.9497
   96DOPC  H12S13182   2.977   5.374   3.489 -3.2160 -3.6760  1.0796
   96DOPC  C21313183   2.855   5.425   3.648  0.9851 -1.6378 -0.4323
   96DOPC  H13R13184   2.774   5.349   3.662 -0.2818 -0.0883  1.0789
   96DOPC  H13S13185   2.793   5.512   3.678  1.9113 -1.2828  0.4662
   96DOPC  C21413186   2.973   5.397   3.734  0.3013  0.4673 -0.6751
   96DOPC  H14R13187   3.049   5.475   3.710 -0.9872  1.4499 -1.7005
   96DOPC  H14S13188   3.020   5.301   3.703 -2.2086 -1.2893  0.6039
   96DOPC  C21513189   2.947   5.389   3.886  0.1307  0.2032  0.1293
   96DOPC  H15R13190   2.909   5.484   3.928 -0.8923 -0.7612  1.5222
   96DOPC  H15S13191   3.039   5.371   3.946  0.9054  0.2548 -1.0096
   96DOPC  C21613192   2.853   5.278   3.934 -0.4771  0.1375  0.1303
   96DOPC  H16R13193   2.755   5.292   3.882 -0.1113 -0.1437 -0.6601
   96DOPC  H16S13194   2.839   5.278   4.044  0.9206 -1.1995  0.3402
   96DOPC  C21713195   2.888   5.136   3.891  0.4966 -0.7862 -0.1481
   96DOPC  H17R13196   2.990   5.105   3.925  0.7503 -0.5606 -0.6890
   96DOPC  H17S13197   2.891   5.135   3.780 -1.3997  2.0340 -0.3160
   96DOPC  C21813198   2.786   5.025   3.942 -0.0090  0.5354  0.4132
   96DOPC  H18R13199   2.681   5.037   3.906  0.9257 -0.0940 -2.8500
   96DOPC  H18S13200   2.796   5.013   4.052 -2.8541 -1.2621  0.5853
   96DOPC  H18T13201   2.827   4.942   3.881 -1.3394  1.7896 -2.3988
   96DOPC   C3313202   3.135   5.550   2.888 -0.0128  0.1234 -0.1327
   96DOPC   H3X13203   3.192   5.641   2.916 -2.0638  1.7509 -0.9595
   96DOPC   H3Y13204   3.196   5.466   2.847 -0.4308  0.1176 -0.7647
   96DOPC   C3413205   3.067   5.496   3.022 -0.2390  0.2076 -0.1868
   96DOPC   H4X13206   3.008   5.404   3.000 -0.3115  0.1738  0.1468
   96DOPC   H4Y13207   2.996   5.564   3.074 -0.7046 -1.1771  1.0590
   96DOPC   C3513208   3.180   5.452   3.122 -0.0957 -0.0119  0.0329
   96DOPC   H5X13209   3.252   5.537   3.113 -1.2098  0.8784 -0.7131
   96DOPC   H5Y13210   3.223   5.360   3.078 -1.7222  0.0677 -1.8781
   96DOPC   C3613211   3.129   5.431   3.264 -0.0451 -0.0512  0.7072
   96DOPC   H6X13212   3.097   5.531   3.299 -1.6168 -0.8277  1.6121
   96DOPC   H6Y13213   3.038   5.369   3.276 -0.6763  1.0355  1.6688
   96DOPC   C3713214   3.242   5.380   3.350 -0.3632  0.0816 -0.1269
   96DOPC   H7X13215   3.208   5.363   3.455  0.0262 -0.9215 -0.1480
   96DOPC   H7Y13216   3.272   5.284   3.302 -1.1536 -0.2225 -0.0330
   96DOPC   C3813217   3.368   5.470   3.356 -0.1591 -0.4540  0.0574
   96DOPC   H8X13218   3.335   5.575   3.368 -0.3854 -0.3967 -1.0143
   96DOPC   H8Y13219   3.426   5.462   3.261 -0.1112  2.4586 -0.2654
   96DOPC   C3913220   3.465   5.425   3.460 -0.7537 -0.0823  0.5792
   96DOPC   H9X13221   3.547   5.360   3.424  0.5394  0.9202  1.6574
   96DOPC  C31013222   3.459   5.454   3.589  0.7494  0.3098  0.5123
   96DOPC  H10X13223   3.538   5.420   3.658 -1.8332 -2.0906  2.4853
   96DOPC  C31113224   3.351   5.524   3.668  0.3472 -0.2397  0.3153
   96DOPC  H11X13225   3.287   5.452   3.724 -0.7203  0.0759 -0.4501
   96DOPC  H11Y13226   3.287   5.581   3.597  2.1945  0.6125 -0.7510
   96DOPC  C31213227   3.417   5.628   3.751 -0.0444 -0.0585  0.8316
   96DOPC  H12X13228   3.485   5.690   3.688  0.0345 -0.4818  0.4906
   96DOPC  H12Y13229   3.481   5.574   3.825 -0.4210 -3.3376 -1.0370
   96DOPC  C31313230   3.323   5.725   3.822  0.0405 -0.8915  0.6135
   96DOPC  H13X13231   3.261   5.775   3.745  4.8949  1.7155 -2.0659
   96DOPC  H13Y13232   3.256   5.670   3.892 -3.4374  0.2150 -1.6163
   96DOPC  C31413233   3.404   5.827   3.902 -0.1796  0.1194 -0.2901
   96DOPC  H14X13234   3.484   5.785   3.967 -0.4717 -0.1320 -0.0940
   96DOPC  H14Y13235   3.467   5.896   3.841  1.1562  0.2344  1.1367
   96DOPC  C31513236   3.304   5.906   3.988 -0.3300  0.0213 -0.7039
   96DOPC  H15X13237   3.246   5.832   4.047  0.3850  1.0407  1.3640
   96DOPC  H15Y13238   3.231   5.971   3.934 -0.7363  0.0275 -0.1594
   96DOPC  C31613239   3.375   5.990   4.097 -0.1559  0.6344  0.3291
   96DOPC  H16X13240   3.438   5.931   4.167 -2.1169 -0.1518  1.5093
   96DOPC  H16Y13241   3.442   6.068   4.054 -0.9862  1.0220 -0.2775
   96DOPC  C31713242   3.274   6.065   4.183  0.9524  0.5734  0.3553
   96DOPC  H17X13243   3.221   6.141   4.121  1.5820  0.6190 -0.1399
   96DOPC  H17Y13244   3.193   5.990   4.200 -2.2829  2.8037 -3.3630
   96DOPC  C31813245   3.333   6.123   4.303 -0.2800 -0.1447  0.5720
   96DOPC  H18X13246   3.256   6.164   4.372 -1.1580  1.3521 -1.2276
   96DOPC  H18Y13247   3.402   6.056   4.359  1.6040 -0.1372 -1.6068
   96DOPC  H18Z13248   3.398   6.210   4.283 -1.0912  0.7468  1.6810
   97DOPC     N13249   2.058   5.414   1.681 -0.1767 -0.0103  0.3701
   97DOPC   C1213250   1.959   5.300   1.687  0.1132 -0.2709  0.4368
   97DOPC  H12A13251   1.877   5.329   1.752  0.2474  0.0764  0.4542
   97DOPC  H12B13252   2.003   5.207   1.719  0.4452 -1.2989 -2.6558
   97DOPC   C1313253   2.108   5.427   1.823  0.4980  0.0085  0.3063
   97DOPC  H13A13254   2.213   5.454   1.819  0.2536  1.4523  2.2487
   97DOPC  H13B13255   2.076   5.518   1.872  0.9465  1.7336 -2.3817
   97DOPC  H13C13256   2.102   5.330   1.870 -1.0893 -0.0791 -0.0194
   97DOPC   C1413257   2.004   5.549   1.638 -0.4836  0.3545 -0.8460
   97DOPC  H14A13258   1.949   5.536   1.546 -1.6531  0.3607 -0.1634
   97DOPC  H14B13259   1.932   5.590   1.708 -1.7539 -2.7839 -0.1714
   97DOPC  H14C13260   2.086   5.619   1.625  0.2022 -0.6262 -2.0298
   97DOPC   C1513261   2.174   5.380   1.594  0.6974  0.5928  0.0607
   97DOPC  H15A13262   2.210   5.281   1.620 -1.6353  0.3377  2.8594
   97DOPC  H15B13263   2.251   5.455   1.601  1.1009  0.1717  0.1610
   97DOPC  H15C13264   2.137   5.374   1.493  0.2049  1.3370  0.1898
   97DOPC   C1113265   1.882   5.270   1.556 -0.1862  0.2607  0.2483
   97DOPC  H11A13266   1.960   5.235   1.486  1.1624  2.1502  0.7281
   97DOPC  H11B13267   1.814   5.183   1.566  0.0608 -0.0574 -0.7574
   97DOPC     P13268   1.662   5.426   1.578 -0.1074 -0.1007  0.3491
   97DOPC   O1313269   1.555   5.350   1.509  0.0596 -0.1194  0.2299
   97DOPC   O1413270   1.663   5.572   1.581 -0.7508 -0.3326  0.1358
   97DOPC   O1213271   1.805   5.382   1.509  0.2479  0.1866 -0.2697
   97DOPC   O1113272   1.680   5.379   1.727 -0.2155  0.2034  0.2953
   97DOPC    C113273   1.567   5.359   1.816  0.1866  0.4385 -0.5686
   97DOPC    HA13274   1.480   5.308   1.769  1.6350 -3.1477  0.3458
   97DOPC    HB13275   1.520   5.456   1.843 -1.3499 -1.1715  3.1724
   97DOPC    C213276   1.602   5.278   1.946  0.8464 -0.1019 -0.1453
   97DOPC    HS13277   1.516   5.282   2.016 -0.0067 -0.2054 -1.1697
   97DOPC   O2113278   1.720   5.337   2.001 -0.8973  0.0313 -0.1499
   97DOPC   C2113279   1.697   5.438   2.089 -0.0859 -0.5990  0.9965
   97DOPC   O2213280   1.588   5.481   2.113 -0.1624 -0.0925 -0.2045
   97DOPC   C2213281   1.828   5.495   2.154  0.1682  0.0446 -1.3937
   97DOPC   H2R13282   1.809   5.598   2.191  1.5293  0.3170 -1.3897
   97DOPC   H2S13283   1.903   5.504   2.073 -0.7995 -0.0149 -2.3086
   97DOPC    C313284   1.636   5.134   1.910  0.3262  0.2469  0.0503
   97DOPC    HX13285   1.698   5.134   1.818 -0.0707 -1.1446 -0.2426
   97DOPC    HY13286   1.538   5.087   1.887  0.2165  1.4281 -2.1603
   97DOPC   O3113287   1.709   5.070   2.021 -0.1465  0.5494  0.1592
   97DOPC   C3113288   1.636   5.019   2.124 -0.7178 -0.1183  0.5492
   97DOPC   O3213289   1.524   5.055   2.157 -0.0642  0.3502  0.0899
   97DOPC   C3213290   1.725   4.927   2.202 -0.3155 -1.1014 -0.1151
   97DOPC   H2X13291   1.732   4.829   2.151  1.5372 -0.6272 -0.8456
   97DOPC   H2Y13292   1.823   4.977   2.213 -0.1402 -1.1721 -1.1960
   97DOPC   C2313293   1.859   5.421   2.280 -0.1459 -0.0808  0.0618
   97DOPC   H3R13294   1.766   5.418   2.341 -0.4569  0.3608 -0.3871
   97DOPC   H3S13295   1.926   5.485   2.340 -0.8074  0.6969 -0.0168
   97DOPC   C2413296   1.931   5.291   2.244 -0.0276  0.2184 -0.0479
   97DOPC   H4R13297   2.027   5.310   2.192  0.7342  0.1263  1.2755
   97DOPC   H4S13298   1.868   5.245   2.165  0.2155  1.4181 -0.9724
   97DOPC   C2513299   1.964   5.189   2.356 -0.8523 -0.0771 -0.0827
   97DOPC   H5R13300   2.018   5.103   2.311  0.7431  1.9231 -2.2563
   97DOPC   H5S13301   1.870   5.139   2.386 -1.1409  0.9246  0.7618
   97DOPC   C2613302   2.022   5.239   2.488 -0.2852  0.8837 -0.5369
   97DOPC   H6R13303   1.962   5.206   2.575 -1.9053 -0.1825 -1.9899
   97DOPC   H6S13304   2.014   5.350   2.483  0.7818  0.9407 -1.2173
   97DOPC   C2713305   2.160   5.197   2.513  0.2101 -0.0483 -0.5141
   97DOPC   H7R13306   2.227   5.229   2.430 -0.1846 -0.0522 -0.8363
   97DOPC   H7S13307   2.183   5.090   2.532  0.1590 -0.0507 -0.4645
   97DOPC   C2813308   2.201   5.255   2.642 -0.2600  0.0333 -0.2549
   97DOPC   H8R13309   2.301   5.210   2.660 -0.1990 -0.5750 -1.9564
   97DOPC   H8S13310   2.147   5.221   2.733  0.4044  2.0174  0.9473
   97DOPC   C2913311   2.233   5.401   2.635  0.1827 -0.2310 -0.1215
   97DOPC   H9R13312   2.283   5.430   2.541 -1.2332  0.4093 -0.7007
   97DOPC  C21013313   2.209   5.497   2.735  0.0261  0.7065  0.1500
   97DOPC  H10R13314   2.228   5.605   2.723 -3.3376  1.6047  1.6218
   97DOPC  C21113315   2.130   5.466   2.860 -0.2414 -0.1339 -0.4379
   97DOPC  H11R13316   2.184   5.521   2.940  0.7715  0.8314 -1.7530
   97DOPC  H11S13317   2.123   5.357   2.881  0.8311 -0.5676 -2.1264
   97DOPC  C21213318   1.983   5.514   2.874 -0.0345  0.4017 -0.6049
   97DOPC  H12R13319   1.978   5.624   2.861 -1.2497  0.1612 -2.7797
   97DOPC  H12S13320   1.947   5.483   2.974 -0.1555  1.6059 -0.2617
   97DOPC  C21313321   1.889   5.451   2.766 -0.0941 -0.5664 -0.4286
   97DOPC  H13R13322   1.905   5.341   2.774  1.6110 -0.2787  0.7272
   97DOPC  H13S13323   1.920   5.478   2.663 -1.7082 -0.9334 -1.0345
   97DOPC  C21413324   1.749   5.505   2.779  0.3543 -0.4881  0.4956
   97DOPC  H14R13325   1.747   5.615   2.761  1.7411 -0.7463 -1.5508
   97DOPC  H14S13326   1.706   5.492   2.881  0.1300  1.1206  0.6401
   97DOPC  C21513327   1.655   5.448   2.669  0.3217 -0.1880 -0.1463
   97DOPC  H15R13328   1.689   5.473   2.566 -0.7460 -1.4018 -0.8395
   97DOPC  H15S13329   1.560   5.504   2.681  0.0631 -0.7366  0.4120
   97DOPC  C21613330   1.621   5.297   2.673 -0.5182  0.1853  0.5099
   97DOPC  H16R13331   1.563   5.270   2.764  0.3167  1.1832  1.3652
   97DOPC  H16S13332   1.720   5.252   2.694 -0.9069 -0.2182  1.5388
   97DOPC  C21713333   1.553   5.252   2.548 -0.5541  0.3784 -0.5834
   97DOPC  H17R13334   1.537   5.142   2.549 -1.4818  0.5099 -0.4429
   97DOPC  H17S13335   1.615   5.258   2.456 -1.0685  1.7863 -0.8518
   97DOPC  C21813336   1.420   5.317   2.518 -0.0650  0.0175 -0.2020
   97DOPC  H18R13337   1.386   5.274   2.421 -0.2509 -0.7066  0.1776
   97DOPC  H18S13338   1.432   5.424   2.489  1.0897 -0.1015 -0.1907
   97DOPC  H18T13339   1.340   5.308   2.595  1.1571  0.2460  1.1501
   97DOPC   C3313340   1.677   4.901   2.349 -0.2759  0.0960 -0.0426
   97DOPC   H3X13341   1.577   4.855   2.341  0.0194 -0.3640 -1.3548
   97DOPC   H3Y13342   1.666   5.001   2.396  1.0857  1.0880 -1.6835
   97DOPC   C3413343   1.773   4.814   2.424  0.2553  0.2366 -0.0122
   97DOPC   H4X13344   1.869   4.869   2.428  1.9498 -2.1539 -3.3034
   97DOPC   H4Y13345   1.789   4.717   2.373 -1.0125 -0.9829  1.7775
   97DOPC   C3513346   1.738   4.793   2.570 -0.2410 -0.0506 -0.0195
   97DOPC   H5X13347   1.811   4.726   2.619  0.8194  0.9433 -0.1987
   97DOPC   H5Y13348   1.639   4.745   2.583 -0.4040  0.7668  2.1107
   97DOPC   C3613349   1.735   4.917   2.663  0.3817 -0.4974  0.1692
   97DOPC   H6X13350   1.839   4.956   2.672 -0.0753  0.6175  0.8934
   97DOPC   H6Y13351   1.669   4.996   2.623 -2.6175 -3.2033 -0.6154
   97DOPC   C3713352   1.714   4.881   2.815 -0.4678 -0.1732 -0.1353
   97DOPC   H7X13353   1.621   4.820   2.817 -0.3025 -0.5550 -2.0040
   97DOPC   H7Y13354   1.797   4.818   2.853  1.5047  1.3175 -1.7641
   97DOPC   C3813355   1.702   5.007   2.904 -0.7605 -0.4488  0.5405
   97DOPC   H8X13356   1.606   5.060   2.886  0.2353  1.3013  0.0762
   97DOPC   H8Y13357   1.781   5.082   2.881 -0.6312 -1.0513 -1.1246
   97DOPC   C3913358   1.715   4.976   3.046 -0.3898  0.3502  0.2949
   97DOPC   H9X13359   1.692   4.875   3.082  0.0967  0.1749  0.1289
   97DOPC  C31013360   1.765   5.058   3.140 -0.1518 -0.1604 -0.1036
   97DOPC  H10X13361   1.796   5.003   3.230  0.2148 -3.0991 -1.8631
   97DOPC  C31113362   1.819   5.202   3.122  0.3379 -0.3429 -0.3365
   97DOPC  H11X13363   1.824   5.239   3.017 -0.4556  0.3634 -0.1353
   97DOPC  H11Y13364   1.926   5.200   3.151  0.7182 -1.1415 -1.7323
   97DOPC  C31213365   1.746   5.309   3.205  0.0067  0.2902  0.2259
   97DOPC  H12X13366   1.804   5.402   3.185  1.5643 -1.0739 -2.0332
   97DOPC  H12Y13367   1.752   5.269   3.308  1.5590 -1.1978 -0.4097
   97DOPC  C31313368   1.599   5.324   3.165  0.8859 -0.5785 -0.1207
   97DOPC  H13X13369   1.593   5.354   3.058  0.3159 -0.4118 -0.0459
   97DOPC  H13Y13370   1.548   5.227   3.184 -1.7906  0.9956  1.2932
   97DOPC  C31413371   1.534   5.445   3.234 -0.4144  0.1734 -0.2030
   97DOPC  H14X13372   1.555   5.429   3.343  1.7336  4.4465  0.1900
   97DOPC  H14Y13373   1.588   5.535   3.198 -1.7804  0.6242 -1.1570
   97DOPC  C31513374   1.383   5.474   3.210  0.1835 -0.2516  0.7384
   97DOPC  H15X13375   1.344   5.555   3.275  0.9979 -1.3417  2.6528
   97DOPC  H15Y13376   1.322   5.383   3.225 -1.2455  0.3791 -0.8673
   97DOPC  C31613377   1.334   5.503   3.059 -1.3971 -0.3662 -1.0294
   97DOPC  H16X13378   1.409   5.567   3.008 -3.2323  2.0214 -0.9028
   97DOPC  H16Y13379   1.331   5.407   3.004 -0.9518 -1.0274  0.0676
   97DOPC  C31713380   1.196   5.572   3.056  0.2354 -0.3918 -0.5833
   97DOPC  H17X13381   1.119   5.524   3.119 -0.6720  0.2358 -1.1840
   97DOPC  H17Y13382   1.202   5.673   3.102 -1.1993 -0.9788  0.9882
   97DOPC  C31813383   1.135   5.590   2.915 -0.2261 -0.3269  0.1985
   97DOPC  H18X13384   1.025   5.603   2.902 -0.3428 -2.6481 -1.7333
   97DOPC  H18Y13385   1.189   5.679   2.876 -1.5864  0.3876 -0.1256
   97DOPC  H18Z13386   1.170   5.502   2.857  0.7483  0.0246  0.2351
   98DOPC     N13387   2.664   1.314   1.711 -0.5276  0.0466 -0.4377
   98DOPC   C1213388   2.781   1.390   1.653  0.4429  0.0377 -0.6116
   98DOPC  H12A13389   2.772   1.495   1.675  0.1430  0.4103 -2.3692
   98DOPC  H12B13390   2.764   1.396   1.547  0.7876 -0.0016 -0.6704
   98DOPC   C1313391   2.663   1.179   1.636 -0.1816 -0.6094 -0.4820
   98DOPC  H13A13392   2.651   1.201   1.530  3.2645  0.4723 -0.7579
   98DOPC  H13B13393   2.761   1.134   1.637 -0.6817 -1.7341  0.5247
   98DOPC  H13C13394   2.591   1.114   1.683 -0.9283  0.5945  0.1046
   98DOPC   C1413395   2.532   1.381   1.691  0.3991  0.4025 -0.2699
   98DOPC  H14A13396   2.536   1.422   1.591  2.5483  4.0915  1.1345
   98DOPC  H14B13397   2.452   1.312   1.711 -1.0343  1.6294 -1.5375
   98DOPC  H14C13398   2.515   1.464   1.757  1.2026  1.0858 -0.8980
   98DOPC   C1513399   2.689   1.299   1.854  0.4906 -0.1187  0.0219
   98DOPC  H15A13400   2.614   1.236   1.900  0.3037  1.5457  2.1002
   98DOPC  H15B13401   2.688   1.396   1.900 -2.4221 -0.4278  0.8138
   98DOPC  H15C13402   2.782   1.245   1.866  1.8014  2.0820  0.2905
   98DOPC   C1113403   2.923   1.338   1.688  0.1314 -0.3323  0.8908
   98DOPC  H11A13404   2.942   1.244   1.633  0.0987  0.9812 -1.5122
   98DOPC  H11B13405   3.003   1.404   1.647 -0.5637 -0.5918 -0.9812
   98DOPC     P13406   3.064   1.227   1.871  0.2410 -0.2702 -0.3840
   98DOPC   O1313407   3.194   1.302   1.865 -0.0971 -0.2968 -0.0052
   98DOPC   O1413408   3.060   1.110   1.783 -0.5351 -0.0042  0.3325
   98DOPC   O1213409   2.955   1.333   1.828 -0.5519  0.5228 -0.1936
   98DOPC   O1113410   3.015   1.193   2.019 -0.0152  0.4585  0.7147
   98DOPC    C113411   3.020   1.280   2.124 -0.2668 -0.9703  0.2706
   98DOPC    HA13412   2.936   1.261   2.194  0.6750 -1.6163  1.2557
   98DOPC    HB13413   3.026   1.386   2.091  0.7486 -1.4961 -1.3036
   98DOPC    C213414   3.146   1.252   2.216  0.0136 -0.1838  0.2688
   98DOPC    HS13415   3.233   1.273   2.150 -0.3200  0.0520 -0.1037
   98DOPC   O2113416   3.139   1.117   2.264  0.3539 -0.2723 -0.1495
   98DOPC   C2113417   3.240   1.038   2.235  0.4162 -0.0957 -0.3419
   98DOPC   O2213418   3.346   1.067   2.177 -0.2676 -0.1713  0.0352
   98DOPC   C2213419   3.205   0.898   2.290 -0.2447 -0.0199  0.6705
   98DOPC   H2R13420   3.295   0.840   2.263 -1.1442 -0.8361 -0.6941
   98DOPC   H2S13421   3.122   0.867   2.223 -1.2742  0.5507  1.6526
   98DOPC    C313422   3.153   1.346   2.341  0.4948 -0.0737  1.0622
   98DOPC    HX13423   3.061   1.341   2.404  0.0951  0.1382  0.5050
   98DOPC    HY13424   3.166   1.449   2.301  0.8016 -1.0455 -1.5520
   98DOPC   O3113425   3.264   1.320   2.427 -0.1929 -0.6119 -0.0731
   98DOPC   C3113426   3.375   1.379   2.383 -0.3031  0.1335  0.0774
   98DOPC   O3213427   3.394   1.440   2.282 -0.2994  0.7309  0.7487
   98DOPC   C3213428   3.487   1.339   2.479  0.0681  0.0774  0.0849
   98DOPC   H2X13429   3.508   1.413   2.558  1.6939  1.1564 -1.2726
   98DOPC   H2Y13430   3.457   1.246   2.532 -0.2250 -0.3584 -0.8193
   98DOPC   C2313431   3.156   0.894   2.433  0.4841 -0.2253 -0.3774
   98DOPC   H3R13432   3.109   0.794   2.443 -1.3028  0.5995 -0.1058
   98DOPC   H3S13433   3.071   0.966   2.434  1.1923  0.6420 -0.8364
   98DOPC   C2413434   3.250   0.940   2.535  0.0454  0.8865 -0.2771
   98DOPC   H4R13435   3.191   0.960   2.627 -1.8857  0.3433 -1.3658
   98DOPC   H4S13436   3.280   1.044   2.508 -0.6832  0.9733 -0.7693
   98DOPC   C2513437   3.363   0.841   2.554 -0.3420 -0.1305 -0.0727
   98DOPC   H5R13438   3.412   0.831   2.455 -2.1002 -0.8614 -0.9063
   98DOPC   H5S13439   3.322   0.745   2.592 -0.5628 -0.6834 -1.6627
   98DOPC   C2613440   3.464   0.900   2.656 -0.1792 -0.2278 -0.4174
   98DOPC   H6R13441   3.411   0.958   2.734  0.9933  0.9094 -0.4303
   98DOPC   H6S13442   3.531   0.971   2.603 -1.5418  1.6498  0.2953
   98DOPC   C2713443   3.559   0.799   2.720  0.1122 -0.1601  0.0132
   98DOPC   H7R13444   3.644   0.862   2.753  0.4393 -0.8230  0.4686
   98DOPC   H7S13445   3.594   0.722   2.648  1.4572 -0.4800  0.9629
   98DOPC   C2813446   3.507   0.732   2.846 -0.9143 -0.3724  0.3301
   98DOPC   H8R13447   3.431   0.658   2.814 -0.5589 -1.4335  1.8486
   98DOPC   H8S13448   3.465   0.800   2.923  1.4674  0.3193  1.1311
   98DOPC   C2913449   3.613   0.655   2.923  0.2872  0.3052  0.1690
   98DOPC   H9R13450   3.617   0.687   3.029 -1.0832 -1.2391  0.7376
   98DOPC  C21013451   3.671   0.537   2.887  0.1207 -0.5848  0.0986
   98DOPC  H10R13452   3.751   0.497   2.951  0.9415 -2.6174 -2.0435
   98DOPC  C21113453   3.649   0.449   2.762  0.0710 -0.4092 -0.7838
   98DOPC  H11R13454   3.749   0.444   2.714  0.5835  1.5164 -0.0241
   98DOPC  H11S13455   3.591   0.500   2.682  2.1889  0.1364 -2.0737
   98DOPC  C21213456   3.596   0.304   2.793  0.3169 -0.3659  0.1124
   98DOPC  H12R13457   3.495   0.323   2.836  0.3031 -1.6186  0.6833
   98DOPC  H12S13458   3.646   0.244   2.871 -3.1917 -0.8576  2.1757
   98DOPC  C21313459   3.576   0.217   2.665 -0.1221 -0.3998 -0.2527
   98DOPC  H13R13460   3.673   0.226   2.613 -0.3974 -0.2036 -0.7464
   98DOPC  H13S13461   3.494   0.260   2.604 -0.1272  0.0294  0.0527
   98DOPC  C21413462   3.550   0.067   2.698  0.3737  0.6212 -0.6453
   98DOPC  H14R13463   3.468   0.073   2.773  0.9886 -1.4374  0.2817
   98DOPC  H14S13464   3.639   0.036   2.758 -1.0348  2.2221  2.5276
   98DOPC  C21513465   3.505  -0.013   2.583 -0.4515  0.5276 -0.2760
   98DOPC  H15R13466   3.404   0.026   2.556 -1.0043 -0.7326 -0.0845
   98DOPC  H15S13467   3.483  -0.117   2.614 -3.1664  1.4800  1.3549
   98DOPC  C21613468   3.590   0.001   2.456 -0.2903 -0.0416 -0.1203
   98DOPC  H16R13469   3.699  -0.004   2.478 -0.3834  2.1004  1.0296
   98DOPC  H16S13470   3.574   0.100   2.410  1.7331 -0.1962 -1.3137
   98DOPC  C21713471   3.551  -0.101   2.354 -0.2594  0.0835 -0.2117
   98DOPC  H17R13472   3.441  -0.098   2.342 -0.3912 -1.4559  0.3095
   98DOPC  H17S13473   3.573  -0.199   2.402  1.8737  1.4476  1.8139
   98DOPC  C21813474   3.628  -0.096   2.225 -0.3616  0.1144  0.1261
   98DOPC  H18R13475   3.738  -0.093   2.240 -0.3056 -1.2471  0.1528
   98DOPC  H18S13476   3.584  -0.008   2.172 -0.3522  0.5886  0.8977
   98DOPC  H18T13477   3.616  -0.191   2.167  2.7260 -0.1715 -0.2316
   98DOPC   C3313478   3.625   1.341   2.403  0.6112  0.1437  0.1786
   98DOPC   H3X13479   3.639   1.449   2.382 -1.2032  0.3318 -0.2463
   98DOPC   H3Y13480   3.620   1.291   2.304 -1.1185  2.1589 -0.8441
   98DOPC   C3413481   3.750   1.280   2.472 -0.4092  0.5398  0.4596
   98DOPC   H4X13482   3.837   1.264   2.405  0.2390  0.2472  1.3431
   98DOPC   H4Y13483   3.736   1.171   2.493  2.0313 -0.0150 -0.3797
   98DOPC   C3513484   3.792   1.347   2.606 -0.1996 -0.1616  0.2216
   98DOPC   H5X13485   3.703   1.383   2.662 -0.1866  1.7034 -0.8817
   98DOPC   H5Y13486   3.847   1.441   2.587  1.9979 -1.8448 -2.5163
   98DOPC   C3613487   3.877   1.264   2.703  0.1295 -0.0542 -0.1301
   98DOPC   H6X13488   3.829   1.164   2.699 -0.8539  0.4346 -0.9024
   98DOPC   H6Y13489   3.979   1.252   2.660 -0.0078  0.6155 -0.6631
   98DOPC   C3713490   3.886   1.323   2.848 -0.2338  0.1400 -0.1987
   98DOPC   H7X13491   3.946   1.254   2.912 -0.1509  1.0670  0.7630
   98DOPC   H7Y13492   3.909   1.431   2.862 -1.1863  0.5429 -1.5318
   98DOPC   C3813493   3.753   1.307   2.924 -0.0723  0.1631  0.0184
   98DOPC   H8X13494   3.704   1.210   2.897 -2.3272  1.1388  0.3969
   98DOPC   H8Y13495   3.679   1.374   2.875 -0.4323  0.8421  1.4332
   98DOPC   C3913496   3.765   1.329   3.074 -0.2496  0.4715 -0.0320
   98DOPC   H9X13497   3.739   1.430   3.107 -1.6595  0.4745 -1.0378
   98DOPC  C31013498   3.776   1.234   3.168  0.5191  0.6317 -0.2939
   98DOPC  H10X13499   3.786   1.268   3.272 -1.2448 -0.6184  0.3065
   98DOPC  C31113500   3.792   1.086   3.159  0.2308 -0.1509  0.3824
   98DOPC  H11X13501   3.894   1.057   3.192  0.5153 -0.9464 -1.0774
   98DOPC  H11Y13502   3.811   1.063   3.052  1.3563 -0.4784  0.6378
   98DOPC  C31213503   3.692   0.979   3.222  0.5221 -0.3221 -0.0557
   98DOPC  H12X13504   3.699   1.003   3.331  0.3974  1.5902 -0.4343
   98DOPC  H12Y13505   3.730   0.878   3.197  1.4589  0.1950 -0.8112
   98DOPC  C31313506   3.541   0.997   3.186  0.8017  0.3608 -0.3533
   98DOPC  H13X13507   3.512   1.101   3.212  0.8288  0.8313 -2.0466
   98DOPC  H13Y13508   3.539   0.983   3.075  3.3119 -0.1982 -0.3849
   98DOPC  C31413509   3.441   0.909   3.264 -0.2070 -0.3577 -0.3323
   98DOPC  H14X13510   3.459   0.801   3.247  0.8857 -0.0061 -1.4790
   98DOPC  H14Y13511   3.454   0.929   3.373 -2.3938 -3.1833  0.5695
   98DOPC  C31513512   3.294   0.925   3.237  0.0895 -0.7070  0.1500
   98DOPC  H15X13513   3.254   1.028   3.248 -0.4389 -0.5351 -2.5742
   98DOPC  H15Y13514   3.231   0.861   3.301 -0.1651 -1.1594 -0.5374
   98DOPC  C31613515   3.264   0.873   3.094  0.0464 -0.1381  0.9552
   98DOPC  H16X13516   3.305   0.952   3.028 -1.5535 -0.4421 -0.4885
   98DOPC  H16Y13517   3.318   0.780   3.067  0.9762  1.1547 -1.9396
   98DOPC  C31713518   3.114   0.869   3.054 -0.9485  0.0598  0.3342
   98DOPC  H17X13519   3.063   0.805   3.131 -2.2766  0.4434 -0.1925
   98DOPC  H17Y13520   3.078   0.974   3.058  2.0613  1.2177 -0.2083
   98DOPC  C31813521   3.088   0.830   2.909 -0.3940 -0.5611  0.0954
   98DOPC  H18X13522   2.997   0.856   2.852 -0.8362  0.5202  1.2313
   98DOPC  H18Y13523   3.163   0.886   2.849 -1.2609  3.2433  2.1852
   98DOPC  H18Z13524   3.108   0.721   2.905 -1.2114 -0.6842 -1.0096
   99DOPC     N13525   5.871   0.243   1.398 -0.0235  0.4984  0.2513
   99DOPC   C1213526   5.931   0.309   1.517 -0.3495  0.4154 -0.4212
   99DOPC  H12A13527   5.864   0.386   1.553 -0.7056  0.5152 -1.2631
   99DOPC  H12B13528   6.026   0.354   1.488  1.1332 -1.1898  1.6938
   99DOPC   C1313529   5.740   0.186   1.427 -0.6968 -0.1627 -0.2967
   99DOPC  H13A13530   5.685   0.261   1.482 -0.4680  1.4435 -2.1534
   99DOPC  H13B13531   5.682   0.169   1.337 -2.2703 -1.4021  0.8757
   99DOPC  H13C13532   5.750   0.085   1.464 -0.2714  0.0035  0.0427
   99DOPC   C1413533   5.974   0.147   1.350  0.2220  0.1052  0.1666
   99DOPC  H14A13534   6.068   0.197   1.336  0.5456 -0.9645 -1.8325
   99DOPC  H14B13535   5.988   0.067   1.421 -1.7495  0.0849  0.6044
   99DOPC  H14C13536   5.926   0.107   1.262 -1.3398 -1.0416  1.4766
   99DOPC   C1513537   5.848   0.350   1.288  0.0766 -0.4312  0.0381
   99DOPC  H15A13538   5.760   0.403   1.319 -1.5321 -2.3818 -1.0000
   99DOPC  H15B13539   5.830   0.300   1.194 -0.6214  1.1649 -0.7113
   99DOPC  H15C13540   5.934   0.414   1.274 -0.9577  0.7237 -1.2399
   99DOPC   C1113541   5.959   0.228   1.644  0.3039 -0.0401 -0.4812
   99DOPC  H11A13542   5.987   0.301   1.723 -0.3395 -2.7112  2.4476
   99DOPC  H11B13543   5.865   0.179   1.679 -0.0742  1.4551  0.7178
   99DOPC     P13544   6.210   0.158   1.609 -0.2473 -0.1537 -0.0583
   99DOPC   O1313545   6.215   0.282   1.534 -0.3179 -0.6688  0.4376
   99DOPC   O1413546   6.277   0.037   1.554 -0.7641 -0.5360 -0.2288
   99DOPC   O1213547   6.062   0.126   1.626  0.4131 -0.4324  0.2796
   99DOPC   O1113548   6.267   0.181   1.752  0.4841 -0.0849  0.3501
   99DOPC    C113549   6.273   0.076   1.853 -0.3841  0.5062  0.7475
   99DOPC    HA13550   6.372   0.073   1.902 -0.2385  0.4527  0.4514
   99DOPC    HB13551   6.272  -0.025   1.807 -0.8335  1.5722 -1.8164
   99DOPC    C213552   6.170   0.099   1.960  0.8109 -0.0393  0.0066
   99DOPC    HS13553   6.074   0.094   1.905  1.3017  1.9117 -1.1021
   99DOPC   O2113554   6.178   0.233   2.018  0.0581  0.7956 -0.0308
   99DOPC   C2113555   6.062   0.271   2.064  1.0203 -0.0223 -0.0308
   99DOPC   O2213556   5.949   0.224   2.043  0.3568  0.9332  0.4145
   99DOPC   C2213557   6.092   0.374   2.174  0.2067 -0.1217  0.2227
   99DOPC   H2R13558   6.080   0.475   2.131  2.1616 -0.7335 -1.9798
   99DOPC   H2S13559   6.200   0.369   2.201  0.5610  0.2234 -1.0673
   99DOPC    C313560   6.186  -0.017   2.067  0.2788  0.4651 -0.2098
   99DOPC    HX13561   6.289  -0.005   2.106  0.8382 -4.6733  0.5913
   99DOPC    HY13562   6.177  -0.109   2.005 -0.8404 -0.7019  1.5787
   99DOPC   O3113563   6.082  -0.034   2.174 -0.1149 -0.6879  0.2621
   99DOPC   C3113564   6.132  -0.075   2.278 -0.2453  0.3284 -0.8858
   99DOPC   O3213565   6.247  -0.113   2.299  0.6537 -0.4928  0.2403
   99DOPC   C3213566   6.014  -0.094   2.383 -0.0570 -0.3032 -0.2255
   99DOPC   H2X13567   5.961   0.003   2.395 -1.1771 -0.9160 -0.0827
   99DOPC   H2Y13568   5.943  -0.169   2.342 -1.8697  1.3045 -0.2150
   99DOPC   C2313569   6.005   0.347   2.296 -0.2147  0.6759  0.2404
   99DOPC   H3R13570   6.015   0.250   2.349 -2.7416  0.1676 -0.0837
   99DOPC   H3S13571   5.896   0.358   2.276 -0.3281 -1.5014 -0.6246
   99DOPC   C2413572   6.042   0.458   2.395  1.0793  0.6811 -0.1626
   99DOPC   H4R13573   6.084   0.549   2.348  1.8071  0.2101 -0.4375
   99DOPC   H4S13574   6.121   0.415   2.460 -1.2756 -0.8191  1.8786
   99DOPC   C2513575   5.923   0.487   2.490 -0.6051 -0.2865  0.4048
   99DOPC   H5R13576   5.902   0.392   2.543 -0.3349 -0.6564 -0.1452
   99DOPC   H5S13577   5.827   0.508   2.438 -0.0891  0.4282 -0.2834
   99DOPC   C2613578   5.941   0.589   2.598 -0.1409 -0.3043  0.1063
   99DOPC   H6R13579   5.847   0.612   2.652  0.9623 -0.1139  2.0506
   99DOPC   H6S13580   5.984   0.672   2.537  1.0760  0.5329  2.0074
   99DOPC   C2713581   6.045   0.553   2.717  1.0708 -0.2483  0.4886
   99DOPC   H7R13582   6.146   0.555   2.671  0.6345  0.0059 -0.4979
   99DOPC   H7S13583   6.003   0.454   2.748 -2.4668  0.6166 -1.0067
   99DOPC   C2813584   6.029   0.649   2.838  0.3355 -0.0907 -0.3938
   99DOPC   H8R13585   5.948   0.595   2.890 -1.7679  0.4330 -2.9258
   99DOPC   H8S13586   5.999   0.753   2.811  0.4371  0.7062  2.3196
   99DOPC   C2913587   6.158   0.673   2.908 -0.5235  0.7433 -0.3461
   99DOPC   H9R13588   6.252   0.664   2.852  0.1831 -0.3612  0.9662
   99DOPC  C21013589   6.178   0.712   3.037 -0.4408  0.0306  0.5958
   99DOPC  H10R13590   6.280   0.726   3.075 -0.3419  0.9832  0.0228
   99DOPC  C21113591   6.074   0.738   3.141 -0.5234  0.5388  0.2137
   99DOPC  H11R13592   5.976   0.718   3.095 -1.1940  1.9677  0.9451
   99DOPC  H11S13593   6.064   0.845   3.169 -2.2336  0.5782 -0.4236
   99DOPC  C21213594   6.087   0.646   3.271  0.6659  0.3348 -0.4056
   99DOPC  H12R13595   6.177   0.684   3.324 -0.3220  0.7414  1.0446
   99DOPC  H12S13596   6.105   0.537   3.266  0.7668  0.4126 -2.5721
   99DOPC  C21313597   5.968   0.674   3.366 -0.1502 -0.0408 -0.3571
   99DOPC  H13R13598   5.870   0.644   3.326  0.4567 -0.5356 -1.5115
   99DOPC  H13S13599   5.976   0.784   3.381 -3.6639  0.3639 -0.8192
   99DOPC  C21413600   5.974   0.615   3.509 -0.4015 -0.4594  0.2175
   99DOPC  H14R13601   5.990   0.506   3.509 -1.8077 -0.7026 -0.9397
   99DOPC  H14S13602   5.868   0.623   3.542 -0.7536  0.0640 -0.9551
   99DOPC  C21513603   6.069   0.678   3.620 -0.8227 -0.7153  0.4684
   99DOPC  H15R13604   6.176   0.661   3.595 -1.1270 -0.3791 -1.2116
   99DOPC  H15S13605   6.052   0.608   3.704 -2.1234 -1.0045 -0.0117
   99DOPC  C21613606   6.056   0.830   3.661 -0.5004 -0.4043  1.0352
   99DOPC  H16R13607   6.083   0.886   3.568 -2.1382 -2.7384 -0.9816
   99DOPC  H16S13608   6.134   0.862   3.733 -1.5318  0.5244  1.7768
   99DOPC  C21713609   5.912   0.866   3.715 -0.8498 -0.1899  0.6477
   99DOPC  H17R13610   5.914   0.835   3.822  1.9244 -0.8502  0.4688
   99DOPC  H17S13611   5.832   0.808   3.664 -1.7668  1.2485  0.3675
   99DOPC  C21813612   5.871   1.017   3.717 -0.6168  0.5057 -0.6056
   99DOPC  H18R13613   5.940   1.079   3.778  1.7707 -0.6519 -1.9840
   99DOPC  H18S13614   5.768   1.021   3.759 -0.6259 -2.6970 -0.0439
   99DOPC  H18T13615   5.871   1.055   3.613  1.1226 -0.3169 -0.9419
   99DOPC   C3313616   6.051  -0.145   2.524 -0.6703  0.6544 -0.1816
   99DOPC   H3X13617   6.137  -0.082   2.556 -0.0473 -0.8446  1.2178
   99DOPC   H3Y13618   6.086  -0.250   2.523 -1.8843  0.2262 -1.0336
   99DOPC   C3413619   5.940  -0.116   2.637 -0.3975  0.8821  0.4702
   99DOPC   H4X13620   5.862  -0.192   2.615  2.1180 -1.3168 -1.6661
   99DOPC   H4Y13621   5.902  -0.015   2.612  0.5132  0.8156 -1.3783
   99DOPC   C3513622   5.989  -0.140   2.774  0.3384  0.2974 -0.0175
   99DOPC   H5X13623   6.057  -0.063   2.814  1.2679 -0.3776 -0.2786
   99DOPC   H5Y13624   6.040  -0.238   2.782  0.5362  0.0315 -3.2062
   99DOPC   C3613625   5.874  -0.179   2.875  0.6425 -0.2294 -0.1317
   99DOPC   H6X13626   5.913  -0.165   2.978  1.5160 -2.6037 -0.0775
   99DOPC   H6Y13627   5.792  -0.107   2.854  0.6793  0.6833  2.5357
   99DOPC   C3713628   5.815  -0.320   2.863 -0.0125  0.0397 -0.1909
   99DOPC   H7X13629   5.755  -0.325   2.769  0.7833 -0.7575 -0.6723
   99DOPC   H7Y13630   5.889  -0.403   2.861 -1.5529 -1.4507  1.1396
   99DOPC   C3813631   5.718  -0.353   2.980  0.2498 -0.2707  0.4887
   99DOPC   H8X13632   5.666  -0.448   2.955  0.7356 -0.1816 -0.9602
   99DOPC   H8Y13633   5.642  -0.275   3.004 -0.2803 -1.1385  1.6873
   99DOPC   C3913634   5.787  -0.394   3.105 -0.0922 -0.3341 -0.5845
   99DOPC   H9X13635   5.877  -0.455   3.093 -0.0987 -0.2546 -1.0585
   99DOPC  C31013636   5.767  -0.341   3.231  0.0468  0.0789  0.5377
   99DOPC  H10X13637   5.842  -0.371   3.306 -0.5871 -0.7187  0.8635
   99DOPC  C31113638   5.662  -0.244   3.270 -0.4938 -0.2499  0.7824
   99DOPC  H11X13639   5.560  -0.284   3.252  0.0161 -2.3892  2.2981
   99DOPC  H11Y13640   5.685  -0.147   3.220 -2.2985 -0.1264  0.1214
   99DOPC  C31213641   5.675  -0.212   3.425  0.6920  0.3047  0.8836
   99DOPC  H12X13642   5.780  -0.188   3.453  0.8588  0.7634 -0.1066
   99DOPC  H12Y13643   5.654  -0.308   3.478 -1.4793 -0.3912 -1.0809
   99DOPC  C31313644   5.577  -0.110   3.471  0.4302  0.4021  0.2331
   99DOPC  H13X13645   5.609  -0.007   3.444 -1.3263  1.3146  1.4609
   99DOPC  H13Y13646   5.487  -0.128   3.410  1.0366 -1.6775 -0.1365
   99DOPC  C31413647   5.542  -0.113   3.624  0.7554  0.1371  0.5540
   99DOPC  H14X13648   5.638  -0.142   3.671 -0.0878 -2.8551  0.6386
   99DOPC  H14Y13649   5.510  -0.013   3.660  1.9004  1.3164 -1.4799
   99DOPC  C31513650   5.435  -0.219   3.652 -0.3238  0.0313  0.0104
   99DOPC  H15X13651   5.471  -0.319   3.620  1.3533 -0.0283  1.9282
   99DOPC  H15Y13652   5.336  -0.198   3.605  0.3717  1.3532 -0.9167
   99DOPC  C31613653   5.409  -0.243   3.804  0.0840 -0.3487 -0.0770
   99DOPC  H16X13654   5.349  -0.335   3.819  1.4310 -1.7875 -2.8925
   99DOPC  H16Y13655   5.510  -0.260   3.848  0.1562  0.9126  0.3029
   99DOPC  C31713656   5.339  -0.129   3.882 -0.9862  0.1014  0.9501
   99DOPC  H17X13657   5.405  -0.039   3.878  0.4701 -0.7453  3.2777
   99DOPC  H17Y13658   5.244  -0.105   3.831 -0.7639  0.3330  0.6409
   99DOPC  C31813659   5.312  -0.161   4.036  0.1982  0.4753  0.0829
   99DOPC  H18X13660   5.274  -0.264   4.049  0.0796  0.6591  1.2398
   99DOPC  H18Y13661   5.402  -0.154   4.101 -1.2084  0.5354  2.0879
   99DOPC  H18Z13662   5.234  -0.090   4.071 -0.9878  0.1877 -1.7994
  100DOPC     N13663   5.338   3.233   1.982  0.1258 -0.0581 -0.4872
  100DOPC   C1213664   5.475   3.163   1.974 -0.1273  0.4032  0.1722
  100DOPC  H12A13665   5.553   3.236   1.957  1.3103 -0.2817  3.1073
  100DOPC  H12B13666   5.485   3.108   1.881 -0.0152  3.5916 -1.8480
  100DOPC   C1313667   5.342   3.336   2.091 -0.6407 -0.9443 -0.3590
  100DOPC  H13A13668   5.246   3.378   2.115 -0.1838 -1.0052  1.7311
  100DOPC  H13B13669   5.370   3.290   2.184 -1.1263  0.5820  0.5677
  100DOPC  H13C13670   5.417   3.407   2.060  0.2578 -2.8312 -2.9163
  100DOPC   C1413671   5.229   3.147   2.010 -0.3134 -0.2432  0.3199
  100DOPC  H14A13672   5.265   3.082   2.088  0.3423  0.7926  0.9132
  100DOPC  H14B13673   5.144   3.198   2.052 -1.0493 -1.2065  0.0419
  100DOPC  H14C13674   5.194   3.097   1.920  2.4137  0.1946 -1.0893
  100DOPC   C1513675   5.315   3.308   1.853  0.1540  0.4131 -0.7032
  100DOPC  H15A13676   5.292   3.231   1.781 -2.1746 -0.2451  0.6340
  100DOPC  H15B13677   5.403   3.368   1.836 -0.6147  1.7335 -0.1583
  100DOPC  H15C13678   5.230   3.375   1.860 -0.5148 -0.0939 -2.9576
  100DOPC   C1113679   5.531   3.069   2.089 -0.1970 -0.3444  0.0497
  100DOPC  H11A13680   5.634   3.040   2.061 -0.4448 -0.5235 -0.7060
  100DOPC  H11B13681   5.536   3.134   2.179  1.3543  1.0342 -0.9788
  100DOPC     P13682   5.464   2.826   2.017 -0.1830 -0.2144 -0.1512
  100DOPC   O1313683   5.565   2.851   1.916 -0.1402 -0.0456 -0.5052
  100DOPC   O1413684   5.333   2.787   1.966  0.1080 -0.6097 -0.5368
  100DOPC   O1213685   5.441   2.960   2.100  0.3501 -0.3750 -0.1075
  100DOPC   O1113686   5.515   2.710   2.113 -0.3089 -0.3169 -0.0203
  100DOPC    C113687   5.646   2.722   2.172 -0.1640  1.0033  0.6967
  100DOPC    HA13688   5.676   2.829   2.171  0.2077  0.8994  0.1627
  100DOPC    HB13689   5.718   2.656   2.119 -1.2350  1.1588 -1.0415
  100DOPC    C213690   5.641   2.708   2.328  0.1564 -0.0517 -0.5208
  100DOPC    HS13691   5.737   2.750   2.363  0.8568 -0.9552 -1.2993
  100DOPC   O2113692   5.634   2.567   2.358 -0.2665  0.0016 -0.9425
  100DOPC   C2113693   5.716   2.523   2.448  0.4028 -1.1467 -0.0222
  100DOPC   O2213694   5.809   2.587   2.498  0.4382  0.3044  0.8279
  100DOPC   C2213695   5.665   2.384   2.493 -0.1467 -0.6707 -0.1952
  100DOPC   H2R13696   5.655   2.327   2.398  0.4477 -0.9369 -0.0986
  100DOPC   H2S13697   5.566   2.390   2.543 -0.3044 -1.2413 -0.4361
  100DOPC    C313698   5.528   2.786   2.395  0.0478 -0.2802 -0.2719
  100DOPC    HX13699   5.428   2.759   2.355 -1.0313  2.0370  0.7207
  100DOPC    HY13700   5.536   2.890   2.356  1.7385 -0.4631 -0.4750
  100DOPC   O3113701   5.519   2.771   2.537  0.4022 -0.1710  0.3626
  100DOPC   C3113702   5.617   2.836   2.594 -0.5421  0.4290  0.3863
  100DOPC   O3213703   5.700   2.902   2.536 -0.2576 -0.9213 -0.0388
  100DOPC   C3213704   5.610   2.828   2.740 -0.4447  0.3624  0.0963
  100DOPC   H2X13705   5.528   2.895   2.774 -4.2966 -2.5985 -2.4398
  100DOPC   H2Y13706   5.575   2.726   2.767  2.6122 -0.1924  2.5382
  100DOPC   C2313707   5.770   2.318   2.587  0.1161 -0.6645  0.2593
  100DOPC   H3R13708   5.872   2.320   2.541 -0.5653 -0.7594 -1.3270
  100DOPC   H3S13709   5.735   2.213   2.597 -0.3741 -0.3764  1.6686
  100DOPC   C2413710   5.765   2.373   2.724  0.0386  0.6158  0.7085
  100DOPC   H4R13711   5.661   2.375   2.762 -0.6500 -1.3902 -0.9209
  100DOPC   H4S13712   5.799   2.479   2.725 -2.9967  1.6700 -0.1028
  100DOPC   C2513713   5.842   2.290   2.834 -0.1517  0.3086  0.1135
  100DOPC   H5R13714   5.814   2.183   2.830 -1.2914  0.6131 -0.7482
  100DOPC   H5S13715   5.813   2.330   2.933  1.0861  1.8327 -0.1016
  100DOPC   C2613716   5.996   2.287   2.823 -0.2275 -0.0126  0.7812
  100DOPC   H6R13717   6.045   2.359   2.891  0.5326  1.6826 -1.4372
  100DOPC   H6S13718   6.021   2.325   2.722  0.3878  1.4249  1.4443
  100DOPC   C2713719   6.065   2.147   2.842 -0.3077  0.2749  0.5055
  100DOPC   H7R13720   6.167   2.147   2.797 -0.9423  3.0047 -1.1452
  100DOPC   H7S13721   6.019   2.075   2.771  1.3143 -0.3964  0.0799
  100DOPC   C2813722   6.056   2.089   2.976 -0.2439 -0.5075  0.1898
  100DOPC   H8R13723   6.083   1.982   2.979 -1.6149 -0.8538  1.1893
  100DOPC   H8S13724   5.952   2.104   3.013  0.0914 -0.9909  1.3637
  100DOPC   C2913725   6.137   2.171   3.071 -0.2452 -0.1426 -0.1740
  100DOPC   H9R13726   6.153   2.272   3.031  1.0727 -1.4432 -3.2681
  100DOPC  C21013727   6.186   2.132   3.189  0.4846  0.1639  0.1071
  100DOPC  H10R13728   6.224   2.210   3.258 -0.8332  2.4622 -1.6248
  100DOPC  C21113729   6.158   1.995   3.255 -0.3194  0.6393 -0.4309
  100DOPC  H11R13730   6.242   1.958   3.318 -0.0964 -0.3849 -1.3050
  100DOPC  H11S13731   6.137   1.917   3.179  0.1031  0.3352 -0.2376
  100DOPC  C21213732   6.024   2.003   3.339  0.5599 -0.4204 -0.1154
  100DOPC  H12R13733   5.946   2.065   3.290  0.4814 -0.2432  0.2275
  100DOPC  H12S13734   6.040   2.066   3.430 -1.2346 -0.4549  0.2608
  100DOPC  C21313735   5.973   1.864   3.390 -0.2100 -1.0118 -0.2187
  100DOPC  H13R13736   5.936   1.829   3.291 -0.1896  0.4017 -0.7489
  100DOPC  H13S13737   5.889   1.874   3.462  0.3005  1.4214  0.1036
  100DOPC  C21413738   6.078   1.781   3.456  0.7965 -0.3888 -0.0036
  100DOPC  H14R13739   6.127   1.835   3.541 -1.8962  0.8959  0.8398
  100DOPC  H14S13740   6.158   1.756   3.383 -0.5674  2.2349 -2.5471
  100DOPC  C21513741   6.024   1.653   3.525 -0.5756  0.4926  0.1391
  100DOPC  H15R13742   5.956   1.676   3.611 -1.6193 -0.5004 -0.4024
  100DOPC  H15S13743   6.101   1.585   3.566 -0.6214  0.6938  0.5719
  100DOPC  C21613744   5.949   1.564   3.426 -0.0055  0.3790  0.5298
  100DOPC  H16R13745   5.997   1.575   3.326 -0.4080  1.6819  0.4645
  100DOPC  H16S13746   5.850   1.614   3.420 -0.7890 -1.0629  1.0156
  100DOPC  C21713747   5.930   1.415   3.457  0.6047 -0.6873  0.0028
  100DOPC  H17R13748   5.879   1.398   3.554 -1.0468 -0.5993 -0.8086
  100DOPC  H17S13749   6.027   1.363   3.472 -0.1008 -1.7656  0.8973
  100DOPC  C21813750   5.845   1.340   3.353 -0.1739  0.7313 -0.0040
  100DOPC  H18R13751   5.806   1.240   3.380  0.7883 -1.0950 -4.5103
  100DOPC  H18S13752   5.905   1.323   3.261 -1.0394  0.5129 -0.5383
  100DOPC  H18T13753   5.759   1.398   3.314 -0.1939 -0.5189 -1.9362
  100DOPC   C3313754   5.749   2.849   2.808  0.4707  0.4016 -0.0991
  100DOPC   H3X13755   5.765   2.955   2.779 -1.4455  0.4267 -1.1732
  100DOPC   H3Y13756   5.835   2.797   2.761  0.4910 -0.0186  0.3892
  100DOPC   C3413757   5.746   2.821   2.955  0.3764  0.2744  0.0617
  100DOPC   H4X13758   5.755   2.713   2.982 -0.2518  0.2838  0.3089
  100DOPC   H4Y13759   5.647   2.849   2.996  0.9010 -0.5513  1.9844
  100DOPC   C3513760   5.852   2.898   3.037 -0.2293  0.0472 -0.6875
  100DOPC   H5X13761   5.850   3.004   3.006  1.7264  0.5809  0.8263
  100DOPC   H5Y13762   5.954   2.868   3.006  0.2464  0.1407  0.7010
  100DOPC   C3613763   5.830   2.887   3.188  0.0320  0.4902 -0.0302
  100DOPC   H6X13764   5.797   2.784   3.212 -0.7254 -0.3747 -3.9471
  100DOPC   H6Y13765   5.924   2.912   3.242  0.1828 -0.3667  0.1167
  100DOPC   C3713766   5.725   2.984   3.242 -0.2586 -0.1726  0.0735
  100DOPC   H7X13767   5.763   3.088   3.251 -0.0534 -0.2634  0.2572
  100DOPC   H7Y13768   5.630   2.984   3.184  0.1104  2.3223 -0.6343
  100DOPC   C3813769   5.690   2.957   3.388 -0.5909  0.4501  0.4881
  100DOPC   H8X13770   5.779   2.900   3.423 -0.8649 -0.4275 -0.2075
  100DOPC   H8Y13771   5.610   2.880   3.398  0.2296 -0.3205  1.3505
  100DOPC   C3913772   5.658   3.066   3.482  0.2711 -0.6848  0.1450
  100DOPC   H9X13773   5.746   3.117   3.525 -0.4359 -0.6461  1.6015
  100DOPC  C31013774   5.533   3.103   3.535 -0.3259  0.2143  0.5532
  100DOPC  H10X13775   5.532   3.173   3.620 -0.6513  3.0115 -1.5947
  100DOPC  C31113776   5.397   3.036   3.515  0.2079  0.5098  0.3519
  100DOPC  H11X13777   5.408   2.935   3.469 -1.5074  1.4216 -2.2350
  100DOPC  H11Y13778   5.348   3.090   3.432 -0.0837 -0.8542 -0.3902
  100DOPC  C31213779   5.307   3.032   3.641  0.2354  0.7833 -0.2268
  100DOPC  H12X13780   5.211   2.983   3.614  0.2500  1.9648 -2.6869
  100DOPC  H12Y13781   5.286   3.138   3.669 -0.1802 -0.0584  3.1135
  100DOPC  C31313782   5.375   2.969   3.761  0.0016  0.4246  0.1868
  100DOPC  H13X13783   5.411   2.868   3.731 -0.3344 -0.5082  2.6701
  100DOPC  H13Y13784   5.466   3.025   3.789 -0.6761  2.6372 -1.6959
  100DOPC  C31413785   5.285   2.954   3.885 -0.0040  0.2812  0.3190
  100DOPC  H14X13786   5.246   3.054   3.914  0.3366  1.5412 -3.0660
  100DOPC  H14Y13787   5.198   2.889   3.862  1.4535 -1.5563 -0.2314
  100DOPC  C31513788   5.355   2.892   4.006 -0.7356  0.4105 -0.1616
  100DOPC  H15X13789   5.450   2.948   4.022  1.5349 -3.2678  0.3131
  100DOPC  H15Y13790   5.394   2.794   3.971  0.2794  0.0029  1.9084
  100DOPC  C31613791   5.275   2.873   4.138 -0.7202 -0.2717 -0.3892
  100DOPC  H16X13792   5.212   2.963   4.155 -3.2994 -1.7595 -1.5414
  100DOPC  H16Y13793   5.191   2.803   4.122 -0.3130 -0.5852 -1.2275
  100DOPC  C31713794   5.358   2.834   4.260  0.3183 -0.1068 -0.2911
  100DOPC  H17X13795   5.453   2.891   4.275 -0.6557  1.7782 -0.9305
  100DOPC  H17Y13796   5.298   2.862   4.349  2.8090  0.5131  1.3050
  100DOPC  C31813797   5.397   2.690   4.265 -0.1282  0.4284  0.0315
  100DOPC  H18X13798   5.322   2.618   4.224  1.4617 -0.9078 -0.6634
  100DOPC  H18Y13799   5.485   2.690   4.198  1.2223 -1.4935  1.6614
  100DOPC  H18Z13800   5.427   2.664   4.369  0.7976  0.0890 -0.3108
  101DOPC     N13801   6.071   3.386   1.936  0.1946 -0.3943  0.6682
  101DOPC   C1213802   6.082   3.491   2.045 -0.3018 -0.2940 -0.7958
  101DOPC  H12A13803   6.082   3.588   1.998 -2.0632 -0.1851 -0.6410
  101DOPC  H12B13804   6.181   3.472   2.084  0.6246  2.2448 -1.7006
  101DOPC   C1313805   6.196   3.391   1.852 -0.4442 -0.2752 -0.3183
  101DOPC  H13A13806   6.285   3.356   1.902  1.8364  3.2096 -1.5029
  101DOPC  H13B13807   6.198   3.328   1.765  0.8575  2.1130 -2.1523
  101DOPC  H13C13808   6.222   3.487   1.810 -0.2944 -0.0549  0.2707
  101DOPC   C1413809   5.959   3.425   1.841 -0.0456 -0.3655  0.0642
  101DOPC  H14A13810   5.867   3.432   1.897 -1.0615 -1.9148 -1.3056
  101DOPC  H14B13811   5.968   3.517   1.785 -0.8442 -0.6166 -0.5073
  101DOPC  H14C13812   5.946   3.350   1.764  3.0435 -1.4653  0.4762
  101DOPC   C1513813   6.046   3.244   1.995 -0.6950 -0.6116 -0.3386
  101DOPC  H15A13814   5.953   3.245   2.050  0.5036  1.7377  1.8773
  101DOPC  H15B13815   6.119   3.218   2.069 -0.4660  0.7391 -0.0605
  101DOPC  H15C13816   6.058   3.166   1.922  2.5778 -1.5704  1.0431
  101DOPC   C1113817   5.976   3.490   2.158  0.5765 -0.0198 -0.4658
  101DOPC  H11A13818   5.991   3.392   2.209 -1.4830  0.3460  0.9614
  101DOPC  H11B13819   6.010   3.568   2.229  0.7407  2.2431 -2.8938
  101DOPC     P13820   5.722   3.407   2.142  0.1798 -0.4206 -0.2119
  101DOPC   O1313821   5.776   3.269   2.134  0.6990  0.1200  0.2112
  101DOPC   O1413822   5.614   3.456   2.060 -0.0858  0.3792 -0.2933
  101DOPC   O1213823   5.847   3.505   2.115 -0.4464  0.1711 -0.0628
  101DOPC   O1113824   5.683   3.442   2.300 -0.4910 -0.0483 -0.3163
  101DOPC    C113825   5.775   3.383   2.395  0.7938 -0.7655 -0.3244
  101DOPC    HA13826   5.861   3.454   2.402  0.1450  0.1084 -0.9486
  101DOPC    HB13827   5.823   3.285   2.376  1.2079 -0.8606  1.0965
  101DOPC    C213828   5.719   3.354   2.539 -0.4788  0.3497 -0.1359
  101DOPC    HS13829   5.661   3.445   2.564  0.0926  1.0155 -1.1826
  101DOPC   O2113830   5.835   3.332   2.631  0.5876 -0.5025  0.4538
  101DOPC   C2113831   5.892   3.443   2.677 -0.0589 -0.1460 -0.3728
  101DOPC   O2213832   5.857   3.558   2.653  0.7107 -0.2639 -0.5799
  101DOPC   C2213833   6.001   3.405   2.779  0.3194 -0.0583 -0.2735
  101DOPC   H2R13834   6.055   3.497   2.809  2.7482 -1.5868  0.3214
  101DOPC   H2S13835   6.084   3.353   2.726  0.1852 -0.8101  0.2428
  101DOPC    C313836   5.625   3.225   2.538  0.4376  0.0174  0.0730
  101DOPC    HX13837   5.700   3.147   2.515  0.4549  0.2903 -0.8180
  101DOPC    HY13838   5.554   3.216   2.453 -1.4247  0.5425  1.4881
  101DOPC   O3113839   5.562   3.198   2.662  0.4188  0.1051 -0.0394
  101DOPC   C3113840   5.457   3.266   2.695 -0.2162  0.0907 -0.3209
  101DOPC   O3213841   5.400   3.353   2.632 -0.5434 -0.6042  0.2554
  101DOPC   C3213842   5.427   3.223   2.845  0.0393  0.7528  0.1596
  101DOPC   H2X13843   5.461   3.122   2.877  0.9987  0.5736 -1.3307
  101DOPC   H2Y13844   5.483   3.288   2.916  0.7755  0.3923 -0.0865
  101DOPC   C2313845   5.938   3.325   2.894 -0.0374  0.8752  0.0289
  101DOPC   H3R13846   6.029   3.298   2.952  1.8521  2.5881 -1.9446
  101DOPC   H3S13847   5.877   3.240   2.856 -0.1983  1.6071 -1.4448
  101DOPC   C2413848   5.859   3.423   2.981  0.0937  0.7271  0.1404
  101DOPC   H4R13849   5.768   3.462   2.932 -0.6280 -1.2173 -0.1480
  101DOPC   H4S13850   5.936   3.500   3.001  3.0586 -1.9459 -0.0593
  101DOPC   C2513851   5.808   3.370   3.116  0.3544 -0.1226  0.3219
  101DOPC   H5R13852   5.884   3.296   3.150 -1.3137 -2.8728 -1.5224
  101DOPC   H5S13853   5.729   3.298   3.086  1.2235 -0.6606 -0.7846
  101DOPC   C2613854   5.778   3.480   3.213 -0.9796 -0.1799 -0.3196
  101DOPC   H6R13855   5.727   3.563   3.159 -0.2999  1.9731  2.1441
  101DOPC   H6S13856   5.872   3.512   3.264 -0.9423 -1.7913  0.6892
  101DOPC   C2713857   5.694   3.430   3.336 -0.0656  0.0722  0.6091
  101DOPC   H7R13858   5.721   3.332   3.381 -2.0466 -0.1690  1.3820
  101DOPC   H7S13859   5.589   3.425   3.302 -0.4903 -1.3039  2.0142
  101DOPC   C2813860   5.691   3.531   3.458  0.2658  0.5145 -0.3436
  101DOPC   H8R13861   5.605   3.509   3.525  1.2817  1.4008  1.3357
  101DOPC   H8S13862   5.681   3.634   3.417  0.7070 -0.3754 -2.8710
  101DOPC   C2913863   5.821   3.543   3.528 -0.4494  0.0226  0.6691
  101DOPC   H9R13864   5.888   3.610   3.472 -0.2697  2.1064  3.2014
  101DOPC  C21013865   5.857   3.498   3.649  0.7014  0.0164  0.4998
  101DOPC  H10R13866   5.949   3.535   3.696 -0.2391  0.9333  1.6731
  101DOPC  C21113867   5.762   3.430   3.740  0.2438  0.0212  0.2703
  101DOPC  H11R13868   5.670   3.393   3.689  0.7627 -0.0510 -0.6299
  101DOPC  H11S13869   5.734   3.502   3.819  0.4087 -0.4165  0.7288
  101DOPC  C21213870   5.823   3.305   3.815 -0.2833  0.3036  0.5371
  101DOPC  H12R13871   5.920   3.317   3.870  0.1130  1.2414 -0.3252
  101DOPC  H12S13872   5.840   3.230   3.735 -0.7220  1.9421 -1.1737
  101DOPC  C21313873   5.723   3.243   3.909  0.1079 -0.0076 -0.2091
  101DOPC  H13R13874   5.757   3.141   3.935  1.3007  0.3205 -0.4055
  101DOPC  H13S13875   5.632   3.228   3.847  0.2722 -0.8803 -0.2487
  101DOPC  C21413876   5.689   3.329   4.037  0.2043  0.0267  0.0165
  101DOPC  H14R13877   5.647   3.427   4.004 -0.3998  0.0495  0.8311
  101DOPC  H14S13878   5.785   3.341   4.092 -1.6466  0.3424  3.4112
  101DOPC  C21513879   5.587   3.257   4.121 -0.1492 -0.7209 -0.2509
  101DOPC  H15R13880   5.621   3.155   4.148 -1.1173 -1.4094 -1.5706
  101DOPC  H15S13881   5.493   3.251   4.062 -0.2229  0.4982 -0.2963
  101DOPC  C21613882   5.547   3.322   4.254 -0.2858  0.4491 -0.2503
  101DOPC  H16R13883   5.485   3.411   4.233 -1.8821 -0.9658 -1.8899
  101DOPC  H16S13884   5.632   3.361   4.313 -1.9471  1.4270  1.6298
  101DOPC  C21713885   5.458   3.233   4.344 -0.4568  0.7881  0.5371
  101DOPC  H17R13886   5.446   3.272   4.448  3.3078 -0.8061  1.7640
  101DOPC  H17S13887   5.496   3.130   4.358 -0.4914  0.8638  1.2423
  101DOPC  C21813888   5.315   3.223   4.300 -0.2930 -0.3739 -0.6844
  101DOPC  H18R13889   5.263   3.192   4.393  2.0456  0.0541  0.8244
  101DOPC  H18S13890   5.300   3.145   4.222 -1.0922 -1.2128  0.2930
  101DOPC  H18T13891   5.265   3.317   4.267 -1.4577 -0.6879  0.1197
  101DOPC   C3313892   5.281   3.250   2.883 -0.4281 -0.3223 -0.2708
  101DOPC   H3X13893   5.221   3.212   2.798  1.8617  1.1366 -2.6838
  101DOPC   H3Y13894   5.267   3.360   2.879  1.2362 -0.1259 -1.4601
  101DOPC   C3413895   5.235   3.182   3.011 -0.4828 -0.2093 -0.2472
  101DOPC   H4X13896   5.320   3.191   3.082 -0.9893  0.0632  0.3374
  101DOPC   H4Y13897   5.229   3.072   2.996 -1.8441 -0.3702  1.1320
  101DOPC   C3513898   5.107   3.231   3.079 -0.1629  0.5427 -0.1442
  101DOPC   H5X13899   5.068   3.157   3.151  0.9270  0.3508  0.2654
  101DOPC   H5Y13900   5.031   3.259   3.003  0.0225  1.4965  0.0115
  101DOPC   C3613901   5.135   3.352   3.162 -0.5697  0.5912 -0.2413
  101DOPC   H6X13902   5.191   3.431   3.107 -0.2030  2.4337  2.6026
  101DOPC   H6Y13903   5.036   3.397   3.187 -1.4070 -1.4874  0.3505
  101DOPC   C3713904   5.198   3.313   3.298 -0.0905 -1.1679  0.5077
  101DOPC   H7X13905   5.129   3.238   3.343 -0.9132 -0.4571  0.4626
  101DOPC   H7Y13906   5.295   3.261   3.286  0.2729 -0.2594 -0.7525
  101DOPC   C3813907   5.208   3.435   3.395  0.1775  0.2044  0.0064
  101DOPC   H8X13908   5.106   3.463   3.429  0.3590  1.3592 -0.3701
  101DOPC   H8Y13909   5.240   3.528   3.344 -1.5881  1.1523  0.5624
  101DOPC   C3913910   5.297   3.402   3.515 -0.5613  0.5728 -0.1809
  101DOPC   H9X13911   5.368   3.324   3.481 -1.3401  0.2938 -1.2167
  101DOPC  C31013912   5.302   3.442   3.646  0.0068 -0.2145  0.8133
  101DOPC  H10X13913   5.369   3.401   3.723  2.2623  0.2358 -0.8025
  101DOPC  C31113914   5.194   3.542   3.680  0.7213  0.2700  0.0135
  101DOPC  H11X13915   5.098   3.486   3.675  2.2355 -2.5397 -0.1465
  101DOPC  H11Y13916   5.197   3.623   3.605  0.4690  0.0875 -0.1934
  101DOPC  C31213917   5.216   3.600   3.825 -0.3877  0.2156  0.5122
  101DOPC  H12X13918   5.142   3.683   3.828 -1.7058 -0.5971 -3.2819
  101DOPC  H12Y13919   5.318   3.643   3.822  0.3536 -1.5133 -0.2758
  101DOPC  C31313920   5.184   3.508   3.948  0.0267 -0.0733 -0.2309
  101DOPC  H13X13921   5.104   3.435   3.925 -0.2180  0.0452  0.2503
  101DOPC  H13Y13922   5.275   3.447   3.964  0.7168  0.7790 -0.8052
  101DOPC  C31413923   5.145   3.583   4.076  0.2757  0.2210  0.0090
  101DOPC  H14X13924   5.049   3.637   4.059 -0.8497 -0.3392  3.6608
  101DOPC  H14Y13925   5.129   3.508   4.156  1.1715 -1.5855 -1.4475
  101DOPC  C31513926   5.248   3.682   4.118 -0.4016 -0.3924 -0.2400
  101DOPC  H15X13927   5.253   3.769   4.049  1.6672 -0.1964  0.0832
  101DOPC  H15Y13928   5.352   3.642   4.109 -0.1489  0.2159 -0.1093
  101DOPC  C31613929   5.227   3.743   4.259  0.1951 -0.1284  0.1626
  101DOPC  H16X13930   5.122   3.775   4.273  1.1721  2.4407  2.4082
  101DOPC  H16Y13931   5.251   3.664   4.334 -0.0650 -0.3788 -0.0169
  101DOPC  C31713932   5.325   3.859   4.286 -0.0497  0.5266 -0.1370
  101DOPC  H17X13933   5.424   3.825   4.250 -0.1555  0.4008 -0.3101
  101DOPC  H17Y13934   5.283   3.940   4.222 -2.3874 -1.4482 -1.2575
  101DOPC  C31813935   5.330   3.895   4.430  0.5827 -0.8556 -0.5530
  101DOPC  H18X13936   5.349   4.003   4.444  0.9894 -1.1502  1.4745
  101DOPC  H18Y13937   5.228   3.878   4.470  0.8007 -2.4080 -0.5903
  101DOPC  H18Z13938   5.405   3.836   4.488  2.1803  1.8296  0.2844
  102DOPC     N13939   3.120   5.245   2.012  0.0989 -0.1879 -0.1223
  102DOPC   C1213940   3.178   5.338   1.903 -0.3972  0.9216 -0.1613
  102DOPC  H12A13941   3.236   5.419   1.945 -1.6804  1.9034 -0.2067
  102DOPC  H12B13942   3.092   5.389   1.862 -0.6754 -1.1575 -2.3361
  102DOPC   C1313943   3.007   5.163   1.959 -0.5661 -0.4280  0.2684
  102DOPC  H13A13944   2.969   5.094   2.033 -1.0493 -2.0389 -1.4237
  102DOPC  H13B13945   2.925   5.229   1.934  0.5291  0.6279 -0.7130
  102DOPC  H13C13946   3.038   5.111   1.870  0.8546  0.4164  0.2349
  102DOPC   C1413947   3.067   5.327   2.126  0.2953 -0.2458 -0.1389
  102DOPC  H14A13948   3.013   5.414   2.093  0.7370 -0.0109 -0.2525
  102DOPC  H14B13949   2.987   5.277   2.179 -0.8514 -1.1428 -2.5870
  102DOPC  H14C13950   3.149   5.363   2.187  2.0736 -0.1988 -2.4267
  102DOPC   C1513951   3.228   5.150   2.053 -0.8540  0.2670  0.2042
  102DOPC  H15A13952   3.273   5.108   1.964  3.0408 -2.5554  3.1439
  102DOPC  H15B13953   3.200   5.059   2.103  0.1833 -0.0923  0.1675
  102DOPC  H15C13954   3.315   5.200   2.095  0.8783 -1.2178 -1.4375
  102DOPC   C1113955   3.258   5.276   1.787  0.2535 -0.1195  1.1049
  102DOPC  H11A13956   3.202   5.184   1.760  0.2379  0.5502 -1.4366
  102DOPC  H11B13957   3.267   5.330   1.690 -1.0513 -1.3207  0.2716
  102DOPC     P13958   3.501   5.349   1.838  0.4855 -0.0561 -0.2119
  102DOPC   O1313959   3.468   5.448   1.943 -0.0522 -0.1918  0.0782
  102DOPC   O1413960   3.524   5.392   1.700 -0.4456 -0.4080  0.4956
  102DOPC   O1213961   3.386   5.237   1.831  0.4966 -0.5857  0.0447
  102DOPC   O1113962   3.621   5.257   1.879  0.3766 -0.1050 -0.7826
  102DOPC    C113963   3.626   5.171   1.997  1.0117 -0.0544  0.0381
  102DOPC    HA13964   3.623   5.062   1.972 -0.4464  0.3629 -1.8552
  102DOPC    HB13965   3.531   5.179   2.054  0.1995 -1.6131 -1.0088
  102DOPC    C213966   3.748   5.216   2.087 -0.0006  0.0803  1.0580
  102DOPC    HS13967   3.756   5.144   2.171  0.3771  0.5161  1.3948
  102DOPC   O2113968   3.746   5.351   2.115 -0.1714 -0.1900  0.3160
  102DOPC   C2113969   3.655   5.375   2.210 -0.5749 -0.5891 -0.0944
  102DOPC   O2213970   3.581   5.292   2.255 -0.0253  0.2864 -0.2118
  102DOPC   C2213971   3.667   5.516   2.261  0.2469 -1.0176 -0.7575
  102DOPC   H2R13972   3.636   5.579   2.175 -2.3680  2.6107  2.4737
  102DOPC   H2S13973   3.777   5.531   2.260  0.7752 -4.2526 -1.6007
  102DOPC    C313974   3.874   5.199   2.010  0.2163  0.2288  0.9262
  102DOPC    HX13975   3.876   5.273   1.927 -0.6049 -1.0817 -0.3221
  102DOPC    HY13976   3.878   5.114   1.939  0.2442  1.4272 -0.5547
  102DOPC   O3113977   3.990   5.222   2.093 -0.2074 -0.1077 -0.5839
  102DOPC   C3113978   4.015   5.125   2.182 -0.3521 -0.0173  0.4337
  102DOPC   O3213979   3.964   5.016   2.196 -0.1825  0.5917  0.4504
  102DOPC   C3213980   4.138   5.163   2.273  0.4399 -0.4407 -0.2417
  102DOPC   H2X13981   4.183   5.070   2.313  0.1656 -0.3132  0.3840
  102DOPC   H2Y13982   4.223   5.209   2.219  1.7941  1.0175  2.8633
  102DOPC   C2313983   3.585   5.574   2.383  0.1805  0.3045  0.1698
  102DOPC   H3R13984   3.478   5.574   2.353  0.0303  1.1086  0.6919
  102DOPC   H3S13985   3.613   5.682   2.388  0.8716  0.2716 -1.9497
  102DOPC   C2413986   3.607   5.497   2.514  0.1486  0.7842  0.6678
  102DOPC   H4R13987   3.714   5.467   2.515 -0.2910 -0.8820  0.4694
  102DOPC   H4S13988   3.549   5.403   2.512  1.1439  0.1612  0.7588
  102DOPC   C2513989   3.562   5.575   2.643  0.6079  0.4504  0.9204
  102DOPC   H5R13990   3.458   5.603   2.615  0.5100  0.6461  1.4720
  102DOPC   H5S13991   3.626   5.666   2.639 -0.1496  1.0274  1.4744
  102DOPC   C2613992   3.579   5.506   2.775  0.3409 -0.6261  0.5108
  102DOPC   H6R13993   3.549   5.578   2.854  1.7322  1.7134 -0.9657
  102DOPC   H6S13994   3.683   5.470   2.791  1.8956  2.3131 -1.8178
  102DOPC   C2713995   3.469   5.394   2.793 -0.3954 -0.2101 -0.6822
  102DOPC   H7R13996   3.469   5.314   2.717  2.5218 -3.0016  1.9586
  102DOPC   H7S13997   3.377   5.452   2.770  0.2071  1.6041  1.2086
  102DOPC   C2813998   3.457   5.348   2.936  0.3751 -0.3197 -0.8083
  102DOPC   H8R13999   3.366   5.285   2.942 -0.8924  1.3770 -1.5710
  102DOPC   H8S14000   3.435   5.436   3.000 -0.1643 -0.7024 -0.4547
  102DOPC   C2914001   3.580   5.277   2.978 -0.8609  0.3109 -0.1610
  102DOPC   H9R14002   3.674   5.306   2.928 -1.3386  1.8468 -0.2178
  102DOPC  C21014003   3.579   5.174   3.066 -0.8392 -0.1803  1.1588
  102DOPC  H10R14004   3.674   5.128   3.095 -0.2727 -0.6914 -1.3181
  102DOPC  C21114005   3.463   5.131   3.149 -0.4587  0.3085  0.2396
  102DOPC  H11R14006   3.385   5.209   3.146  0.5946  1.5233  2.2647
  102DOPC  H11S14007   3.498   5.132   3.254 -0.7974 -0.7089  0.3816
  102DOPC  C21214008   3.406   4.991   3.109  0.6429  0.2006 -1.1240
  102DOPC  H12R14009   3.334   4.965   3.189  0.9069 -2.6954 -1.7363
  102DOPC  H12S14010   3.488   4.919   3.129 -0.7152 -1.3160 -0.8384
  102DOPC  C21314011   3.348   4.969   2.967 -0.3001  0.5679  0.4980
  102DOPC  H13R14012   3.419   4.988   2.884 -1.5343  1.1932 -0.4559
  102DOPC  H13S14013   3.251   5.022   2.955 -0.5241  0.0216 -0.2031
  102DOPC  C21414014   3.315   4.818   2.959 -0.0434 -0.1833  0.1323
  102DOPC  H14R14015   3.262   4.784   3.050  1.4583  0.3564  1.2525
  102DOPC  H14S14016   3.413   4.765   2.960  0.4318  0.6507 -0.8867
  102DOPC  C21514017   3.231   4.787   2.824 -0.6925 -0.2339  0.1915
  102DOPC  H15R14018   3.243   4.677   2.809  0.4621  0.1249 -2.0569
  102DOPC  H15S14019   3.269   4.845   2.736 -2.2807 -1.2190 -1.2121
  102DOPC  C21614020   3.087   4.832   2.843  0.2673 -0.3275 -0.4958
  102DOPC  H16R14021   3.091   4.943   2.846 -1.3245 -0.1905 -1.9955
  102DOPC  H16S14022   3.046   4.793   2.938  0.9629 -2.0052 -0.8518
  102DOPC  C21714023   3.003   4.792   2.720  0.3209  0.2906  0.3105
  102DOPC  H17R14024   2.900   4.833   2.724  0.3627  0.4385 -0.1655
  102DOPC  H17S14025   2.986   4.682   2.724 -2.0386  0.5093 -1.6517
  102DOPC  C21814026   3.065   4.841   2.586  0.0211 -0.4014 -0.5285
  102DOPC  H18R14027   3.074   4.951   2.578 -1.5910 -0.2695 -0.8802
  102DOPC  H18S14028   2.986   4.826   2.509  0.8777  0.0539 -1.5305
  102DOPC  H18T14029   3.156   4.783   2.557  0.1177 -1.5143  1.7756
  102DOPC   C3314030   4.107   5.260   2.389  0.2637 -0.2596 -0.2825
  102DOPC   H3X14031   4.096   5.365   2.356  1.1390  0.0884  0.4995
  102DOPC   H3Y14032   4.183   5.246   2.469 -0.6233 -1.9595  0.3244
  102DOPC   C3414033   3.972   5.240   2.455 -0.3135 -0.3465  0.3465
  102DOPC   H4X14034   3.945   5.133   2.443 -1.4416 -0.0723  0.2761
  102DOPC   H4Y14035   3.888   5.299   2.411 -0.9325 -0.8353  0.8521
  102DOPC   C3514036   3.974   5.284   2.604  0.4085 -0.4817 -0.0193
  102DOPC   H5X14037   4.044   5.217   2.658  1.2857  0.7764  0.4754
  102DOPC   H5Y14038   3.874   5.262   2.647  0.6652  0.8688  1.3926
  102DOPC   C3614039   4.021   5.429   2.624 -0.1845 -0.3423 -0.5086
  102DOPC   H6X14040   4.124   5.437   2.582  0.6987 -0.3618  1.5264
  102DOPC   H6Y14041   3.971   5.517   2.578  0.0741  0.1024  0.0458
  102DOPC   C3714042   4.038   5.458   2.774  0.9245  0.2250 -0.5504
  102DOPC   H7X14043   3.955   5.406   2.826  0.2059  4.0403  2.6924
  102DOPC   H7Y14044   4.132   5.417   2.815  0.0601 -1.0644  0.2091
  102DOPC   C3814045   4.013   5.603   2.821  0.6427  0.2063 -0.4227
  102DOPC   H8X14046   3.913   5.638   2.785  1.4417  2.5593 -0.5001
  102DOPC   H8Y14047   4.092   5.666   2.776 -0.4377  1.2714 -0.8726
  102DOPC   C3914048   4.021   5.611   2.971 -0.1508  0.3874  0.0792
  102DOPC   H9X14049   4.115   5.576   3.015  0.5121  0.5327 -1.1509
  102DOPC  C31014050   3.923   5.662   3.056 -0.2622 -0.0288  0.1339
  102DOPC  H10X14051   3.944   5.666   3.163 -0.1386 -0.6859  0.1388
  102DOPC  C31114052   3.793   5.728   3.031  0.0735  0.0116 -0.1426
  102DOPC  H11X14053   3.771   5.721   2.923 -0.0612 -0.3777 -0.0895
  102DOPC  H11Y14054   3.798   5.837   3.056  0.4614 -0.7030  3.5333
  102DOPC  C31214055   3.685   5.679   3.134 -0.4733  0.0070 -0.1261
  102DOPC  H12X14056   3.708   5.697   3.241 -1.4978  1.7269 -0.1506
  102DOPC  H12Y14057   3.679   5.568   3.124  1.3408 -0.4828  2.9975
  102DOPC  C31314058   3.541   5.726   3.107  0.2987  0.1286 -0.0220
  102DOPC  H13X14059   3.512   5.714   3.000 -2.1446  0.8223  0.5002
  102DOPC  H13Y14060   3.471   5.666   3.169  1.1100 -1.7756 -0.8782
  102DOPC  C31414061   3.514   5.871   3.138 -0.4647  0.0170  0.0737
  102DOPC  H14X14062   3.603   5.927   3.102 -0.2742 -0.9175 -0.9933
  102DOPC  H14Y14063   3.421   5.902   3.085 -0.9175  0.9597  1.3762
  102DOPC  C31514064   3.499   5.904   3.290 -0.7420  0.3135 -0.0226
  102DOPC  H15X14065   3.571   5.848   3.353  0.9507  1.7853 -0.5726
  102DOPC  H15Y14066   3.397   5.876   3.325 -0.8332  2.0714  1.2472
  102DOPC  C31614067   3.508   6.057   3.318 -0.2873 -0.3091  0.5331
  102DOPC  H16X14068   3.455   6.121   3.244  1.8802 -0.0669 -0.8962
  102DOPC  H16Y14069   3.460   6.082   3.415  2.7124  1.7348  1.6267
  102DOPC  C31714070   3.648   6.113   3.321  0.0106 -0.3468  0.6834
  102DOPC  H17X14071   3.716   6.051   3.384  1.1933  0.3257  0.1088
  102DOPC  H17Y14072   3.699   6.109   3.222  1.4898 -0.6462  1.4302
  102DOPC  C31814073   3.658   6.265   3.358 -0.2569  0.5138  0.5601
  102DOPC  H18X14074   3.763   6.295   3.337  0.2954 -0.7369  1.3651
  102DOPC  H18Y14075   3.593   6.332   3.299  0.5924  0.1249 -0.8639
  102DOPC  H18Z14076   3.632   6.274   3.466 -1.7124 -2.6422  0.5879
  103DOPC     N14077   6.117   5.699   1.925  1.5583  0.0626  0.8577
  103DOPC   C1214078   6.195   5.828   1.952 -0.5022 -0.0819  0.4593
  103DOPC  H12A14079   6.201   5.853   2.056  0.7816  3.6050 -0.3526
  103DOPC  H12B14080   6.141   5.914   1.914 -0.7042 -0.4778 -0.1681
  103DOPC   C1314081   6.189   5.571   1.943  0.7359 -0.6950 -0.0372
  103DOPC  H13A14082   6.132   5.486   1.907  2.5008 -1.4732 -1.1588
  103DOPC  H13B14083   6.283   5.576   1.890  0.9293  2.2795  0.4553
  103DOPC  H13C14084   6.212   5.559   2.047 -0.6077  0.8078  0.4768
  103DOPC   C1414085   6.072   5.699   1.774 -0.2319 -0.4426 -0.6088
  103DOPC  H14A14086   6.020   5.790   1.749  2.0956  0.8477 -1.0093
  103DOPC  H14B14087   6.154   5.691   1.704  0.0838  1.0487 -0.4372
  103DOPC  H14C14088   6.004   5.616   1.760 -2.1303  0.6627  1.4979
  103DOPC   C1514089   5.996   5.686   2.001  0.3008 -0.2334 -0.6144
  103DOPC  H15A14090   5.942   5.599   1.968 -0.1602 -0.8386  1.5998
  103DOPC  H15B14091   5.938   5.777   2.000  1.6155  0.6381 -0.9524
  103DOPC  H15C14092   6.015   5.667   2.105  2.7993 -1.5622 -1.2386
  103DOPC   C1114093   6.332   5.840   1.888  0.2953  0.1154  0.0306
  103DOPC  H11A14094   6.325   5.842   1.777 -2.8449  1.1305  0.1349
  103DOPC  H11B14095   6.376   5.940   1.913 -1.2138  0.6511  0.6508
  103DOPC     P14096   6.503   5.752   2.061  0.0051  0.1940 -0.0867
  103DOPC   O1314097   6.634   5.806   2.015 -0.1830 -0.4210  0.8771
  103DOPC   O1414098   6.505   5.617   2.127  0.3664 -0.1612 -0.0693
  103DOPC   O1214099   6.417   5.741   1.928 -0.2349  0.7704 -0.2820
  103DOPC   O1114100   6.425   5.854   2.152  0.2260 -0.0589 -0.0565
  103DOPC    C114101   6.470   5.987   2.184  0.9905  0.5852  1.1880
  103DOPC    HA14102   6.443   6.062   2.106  0.2002 -0.2690  0.6308
  103DOPC    HB14103   6.579   5.989   2.208  1.5228 -0.9012 -0.7935
  103DOPC    C214104   6.399   6.016   2.316  0.0134 -0.6716 -0.5832
  103DOPC    HS14105   6.445   6.110   2.351 -0.9661  0.3225 -1.8422
  103DOPC   O2114106   6.404   5.909   2.415 -0.5286  0.0598  0.0459
  103DOPC   C2114107   6.521   5.890   2.459  0.4265  0.1356 -0.3964
  103DOPC   O2214108   6.617   5.965   2.452 -0.5981 -0.4735 -0.1851
  103DOPC   C2214109   6.514   5.766   2.545 -0.3499  0.2840 -0.4583
  103DOPC   H2R14110   6.613   5.721   2.522  0.8396  2.3819  0.2829
  103DOPC   H2S14111   6.428   5.699   2.524 -0.4217 -0.0253  0.7361
  103DOPC    C314112   6.251   6.062   2.285  0.7214  0.0494  0.0985
  103DOPC    HX14113   6.208   5.978   2.226 -0.0453 -0.8673  1.8801
  103DOPC    HY14114   6.242   6.163   2.240  2.8519  2.4995  4.4522
  103DOPC   O3114115   6.174   6.077   2.407 -0.1883 -0.6068  0.4617
  103DOPC   C3114116   6.052   6.022   2.407 -0.5819 -0.6187 -0.6783
  103DOPC   O3214117   5.995   5.975   2.310 -0.3781  0.3121  0.3563
  103DOPC   C3214118   5.980   6.045   2.545  0.1037  0.5556  0.0559
  103DOPC   H2X14119   6.031   6.129   2.598  1.5995  0.2377 -0.8082
  103DOPC   H2Y14120   5.873   6.068   2.528 -0.0534 -1.1595 -1.5738
  103DOPC   C2314121   6.535   5.795   2.698 -0.0816 -0.3430 -0.3374
  103DOPC   H3R14122   6.449   5.849   2.742  0.1152 -0.1355 -0.2083
  103DOPC   H3S14123   6.634   5.841   2.719 -0.1688 -0.3035 -0.0111
  103DOPC   C2414124   6.537   5.655   2.761  0.6713 -0.1887  0.5203
  103DOPC   H4R14125   6.596   5.583   2.701 -0.0873  0.4877 -1.1179
  103DOPC   H4S14126   6.435   5.612   2.772  1.3243 -1.7242  0.7795
  103DOPC   C2514127   6.615   5.653   2.891  0.1630 -0.9851 -0.0505
  103DOPC   H5R14128   6.704   5.714   2.862 -2.2259  2.1816 -1.2459
  103DOPC   H5S14129   6.637   5.547   2.915 -1.0684 -1.6011 -1.4665
  103DOPC   C2614130   6.555   5.726   3.012 -0.0692  0.1394  0.5940
  103DOPC   H6R14131   6.461   5.676   3.044  0.4270 -0.0330  1.8129
  103DOPC   H6S14132   6.531   5.830   2.980  2.2352  0.2091 -1.1735
  103DOPC   C2714133   6.657   5.729   3.124  0.6652 -0.2711 -0.3257
  103DOPC   H7R14134   6.755   5.773   3.094  0.4546  2.2301  2.1821
  103DOPC   H7S14135   6.676   5.622   3.143  0.6983 -0.1232  0.5519
  103DOPC   C2814136   6.601   5.782   3.254 -0.7211  0.0406 -1.0446
  103DOPC   H8R14137   6.651   5.748   3.348  2.0247  1.7095 -1.7717
  103DOPC   H8S14138   6.499   5.743   3.274 -0.4385 -0.1399  0.1133
  103DOPC   C2914139   6.576   5.934   3.259  0.1033  0.3782  0.0742
  103DOPC   H9R14140   6.490   5.966   3.199 -0.2838  1.0577  0.9702
  103DOPC  C21014141   6.644   6.042   3.310 -0.1126 -0.0040  0.1434
  103DOPC  H10R14142   6.604   6.144   3.299 -2.3217 -0.7597  0.5891
  103DOPC  C21114143   6.774   6.030   3.387  0.0219  0.0411 -0.2313
  103DOPC  H11R14144   6.856   6.097   3.354  0.3467 -0.7157 -1.0024
  103DOPC  H11S14145   6.816   5.927   3.386 -1.6392 -0.7825  2.5839
  103DOPC  C21214146   6.761   6.067   3.531 -0.5920  1.0177  0.4763
  103DOPC  H12R14147   6.861   6.043   3.572 -1.4032  0.8923  2.5094
  103DOPC  H12S14148   6.693   5.995   3.582 -1.4402  0.1108 -1.8104
  103DOPC  C21314149   6.720   6.208   3.557 -0.3783 -0.6756  0.5702
  103DOPC  H13R14150   6.612   6.216   3.535  0.1717  2.2050 -1.7140
  103DOPC  H13S14151   6.770   6.278   3.487 -0.2022 -0.3290  1.0325
  103DOPC  C21414152   6.743   6.254   3.704 -0.5266  0.3897  0.4657
  103DOPC  H14R14153   6.700   6.356   3.720 -3.5209 -0.6042 -0.5150
  103DOPC  H14S14154   6.853   6.256   3.720  0.0526 -0.7700 -2.7138
  103DOPC  C21514155   6.684   6.164   3.813 -0.2608  0.3181 -0.9132
  103DOPC  H15R14156   6.739   6.068   3.812  0.5481  0.7582 -0.2293
  103DOPC  H15S14157   6.574   6.152   3.819 -0.0319 -1.1532  2.1289
  103DOPC  C21614158   6.709   6.232   3.953 -0.4952 -0.3092 -0.2242
  103DOPC  H16R14159   6.694   6.340   3.931 -2.6010 -0.8143 -1.4922
  103DOPC  H16S14160   6.811   6.212   3.992 -1.3153 -0.7085  1.8672
  103DOPC  C21714161   6.608   6.195   4.064  0.5298 -0.2788  0.2099
  103DOPC  H17R14162   6.508   6.195   4.016 -0.2659  0.3873  1.8239
  103DOPC  H17S14163   6.612   6.265   4.150 -0.4648  1.2678 -0.9517
  103DOPC  C21814164   6.632   6.057   4.124  0.2670  0.2869  0.3769
  103DOPC  H18R14165   6.666   5.982   4.050 -1.3956 -0.1410  0.0022
  103DOPC  H18S14166   6.533   6.023   4.160 -1.1426  2.8266 -0.8013
  103DOPC  H18T14167   6.707   6.067   4.206  2.0325  1.2289 -1.2748
  103DOPC   C3314168   5.977   5.927   2.642 -0.3594 -0.1397 -0.0051
  103DOPC   H3X14169   5.923   5.838   2.603  2.4185 -1.6593 -0.6212
  103DOPC   H3Y14170   5.916   5.947   2.734 -1.2635  1.5766 -0.9252
  103DOPC   C3414171   6.120   5.870   2.671 -0.6805  0.2029  0.3179
  103DOPC   H4X14172   6.189   5.952   2.697  3.6823 -3.3898  1.3672
  103DOPC   H4Y14173   6.161   5.825   2.579 -2.4061 -0.4468 -0.1773
  103DOPC   C3514174   6.132   5.771   2.786 -0.1283  0.6312 -0.5169
  103DOPC   H5X14175   6.067   5.812   2.866  0.2747  0.8144 -0.2778
  103DOPC   H5Y14176   6.237   5.783   2.821  0.5593  1.2751 -2.6078
  103DOPC   C3614177   6.105   5.621   2.766 -0.3676  0.2301  0.2426
  103DOPC   H6X14178   6.148   5.558   2.847  0.2492  0.1195 -0.1601
  103DOPC   H6Y14179   5.994   5.618   2.774 -0.2619  0.6296  2.5127
  103DOPC   C3714180   6.171   5.560   2.645 -0.1972 -0.2175  0.3794
  103DOPC   H7X14181   6.116   5.605   2.560  0.7642 -0.7663 -0.5538
  103DOPC   H7Y14182   6.263   5.622   2.650 -0.2804 -0.1522  1.3155
  103DOPC   C3814183   6.205   5.412   2.640  0.3231  0.3993  0.0157
  103DOPC   H8X14184   6.109   5.358   2.622 -0.7716  0.7925  3.7183
  103DOPC   H8Y14185   6.236   5.386   2.744  0.6565  0.8559  0.0349
  103DOPC   C3914186   6.310   5.366   2.535  0.0373 -0.2820 -0.0103
  103DOPC   H9X14187   6.261   5.350   2.438 -2.2790  0.1461  1.0114
  103DOPC  C31014188   6.434   5.313   2.553 -1.3144 -0.5227 -0.0311
  103DOPC  H10X14189   6.489   5.294   2.460 -0.3237 -0.3420  0.5049
  103DOPC  C31114190   6.508   5.308   2.686 -0.9377 -0.2334 -0.0711
  103DOPC  H11X14191   6.458   5.373   2.761  0.5978 -1.1207  1.7991
  103DOPC  H11Y14192   6.608   5.350   2.662 -2.0015  1.3598 -2.0038
  103DOPC  C31214193   6.525   5.164   2.747  0.2347  1.1119 -0.1764
  103DOPC  H12X14194   6.605   5.102   2.700  0.7752  0.6219  1.3247
  103DOPC  H12Y14195   6.422   5.122   2.740 -0.1310  1.6607  1.3330
  103DOPC  C31314196   6.551   5.173   2.902  0.4511 -0.8301 -0.3397
  103DOPC  H13X14197   6.635   5.243   2.919 -2.6500  2.9334  1.0436
  103DOPC  H13Y14198   6.463   5.224   2.947  1.0117 -1.0309  1.0485
  103DOPC  C31414199   6.603   5.040   2.967  0.1025 -0.0454 -0.1550
  103DOPC  H14X14200   6.536   4.954   2.945 -0.7698 -0.3241  3.0677
  103DOPC  H14Y14201   6.700   5.009   2.922 -0.0612 -0.0400 -0.5132
  103DOPC  C31514202   6.625   5.051   3.116  0.1273  0.4930 -0.1730
  103DOPC  H15X14203   6.713   5.116   3.138  1.5551 -0.8004 -1.7578
  103DOPC  H15Y14204   6.659   4.955   3.162  2.5480  1.9111  1.2211
  103DOPC  C31614205   6.494   5.089   3.179  0.3075 -0.6672  0.7774
  103DOPC  H16X14206   6.478   5.197   3.160 -2.1638 -0.9645  0.9313
  103DOPC  H16Y14207   6.412   5.040   3.122  1.7466 -1.3779 -0.7984
  103DOPC  C31714208   6.488   5.048   3.321  0.4050 -1.0634 -0.4541
  103DOPC  H17X14209   6.388   5.079   3.358 -1.4920 -2.4952 -3.8913
  103DOPC  H17Y14210   6.491   4.937   3.333 -3.2013 -1.1386  1.3938
  103DOPC  C31814211   6.589   5.109   3.420  0.6435  0.0693 -0.0093
  103DOPC  H18X14212   6.564   5.079   3.525 -0.5438 -0.5861 -0.4592
  103DOPC  H18Y14213   6.687   5.070   3.384  0.7868  0.9097 -0.5432
  103DOPC  H18Z14214   6.596   5.219   3.415  1.4722  0.0792  0.9335
  104DOPC     N14215   4.201   5.089   1.493  0.4268  0.2659  0.4068
  104DOPC   C1214216   4.207   5.220   1.572  0.4127  0.1864  0.0850
  104DOPC  H12A14217   4.103   5.244   1.593  0.6330 -0.1986  1.7894
  104DOPC  H12B14218   4.239   5.295   1.503 -1.2796  0.2245 -0.7193
  104DOPC   C1314219   4.172   4.971   1.582 -0.9078 -0.1085 -0.4309
  104DOPC  H13A14220   4.178   4.876   1.530 -0.0513 -0.6503  0.6129
  104DOPC  H13B14221   4.241   4.962   1.665 -0.8384  1.4178 -0.3025
  104DOPC  H13C14222   4.070   4.988   1.614 -0.4833  0.5691  0.6166
  104DOPC   C1414223   4.337   5.058   1.441 -0.4080 -0.7417 -0.4312
  104DOPC  H14A14224   4.328   4.962   1.392  0.7027 -1.4515  0.6959
  104DOPC  H14B14225   4.374   5.138   1.379  0.7697  0.2503  1.4438
  104DOPC  H14C14226   4.407   5.048   1.522  0.0930 -0.4687 -0.8244
  104DOPC   C1514227   4.096   5.102   1.384  0.1416 -0.6561 -0.5028
  104DOPC  H15A14228   4.103   5.019   1.315 -1.1165 -1.0344 -0.1912
  104DOPC  H15B14229   4.117   5.195   1.334  2.0617 -1.2767 -0.9548
  104DOPC  H15C14230   4.000   5.106   1.433  1.5882 -0.7233  2.6209
  104DOPC   C1114231   4.289   5.232   1.704 -0.5174 -0.0776  0.2293
  104DOPC  H11A14232   4.271   5.332   1.747  1.2020  1.1603 -1.6944
  104DOPC  H11B14233   4.260   5.150   1.773  1.2480 -3.1665 -2.3734
  104DOPC     P14234   4.526   5.136   1.744  0.0442  0.3282  0.3497
  104DOPC   O1314235   4.663   5.197   1.757  0.1675  0.0214 -0.2527
  104DOPC   O1414236   4.522   5.004   1.681  0.4261 -0.8535 -0.0615
  104DOPC   O1214237   4.427   5.238   1.668 -0.2557  0.4405 -0.8040
  104DOPC   O1114238   4.459   5.135   1.892 -0.3300 -0.4114 -0.1499
  104DOPC    C114239   4.487   5.241   1.980 -0.1936 -0.3790  0.5829
  104DOPC    HA14240   4.397   5.274   2.036  0.9628  0.6027  1.9319
  104DOPC    HB14241   4.527   5.334   1.934  0.3451 -0.2929  1.1992
  104DOPC    C214242   4.583   5.189   2.086 -0.0151  0.4318 -0.2857
  104DOPC    HS14243   4.668   5.138   2.036 -0.5709 -2.8723  1.8239
  104DOPC   O2114244   4.512   5.093   2.161 -0.1846  0.3925 -0.0966
  104DOPC   C2114245   4.584   5.003   2.223 -1.1502 -0.5889  0.6278
  104DOPC   O2214246   4.703   4.999   2.219 -0.4589  0.3792  0.2478
  104DOPC   C2214247   4.489   4.898   2.289 -0.9375  0.1140 -0.0070
  104DOPC   H2R14248   4.552   4.808   2.309 -2.1177 -0.7868 -0.2043
  104DOPC   H2S14249   4.407   4.873   2.218 -0.6451  1.0093 -0.6746
  104DOPC    C314250   4.635   5.303   2.168  0.0529 -0.8681 -0.2641
  104DOPC    HX14251   4.675   5.377   2.096 -0.6413 -0.1922  0.0193
  104DOPC    HY14252   4.718   5.266   2.231  0.4529  1.3204  0.6139
  104DOPC   O3114253   4.530   5.372   2.235 -0.1293  0.4298  0.1554
  104DOPC   C3114254   4.542   5.365   2.373 -0.5874  0.1489  0.5514
  104DOPC   O3214255   4.610   5.287   2.438  0.0476  0.0056  0.5644
  104DOPC   C3214256   4.453   5.474   2.436  0.3947  0.0579 -0.4675
  104DOPC   H2X14257   4.489   5.569   2.393  3.3404 -0.8396 -0.1769
  104DOPC   H2Y14258   4.347   5.454   2.408  0.2642  0.4879 -0.2879
  104DOPC   C2314259   4.427   4.949   2.421  0.2387 -0.8519  0.5296
  104DOPC   H3R14260   4.329   4.901   2.442 -0.3353 -0.5826 -1.3402
  104DOPC   H3S14261   4.393   5.054   2.408  1.1335 -0.5820  0.3034
  104DOPC   C2414262   4.521   4.937   2.536  0.3430 -0.1113 -0.4703
  104DOPC   H4R14263   4.618   4.989   2.525 -0.5774  1.7740  0.0016
  104DOPC   H4S14264   4.528   4.833   2.574 -1.2354  0.9426  3.1644
  104DOPC   C2514265   4.461   5.016   2.657  0.7376 -0.2109 -0.2476
  104DOPC   H5R14266   4.375   4.953   2.688  0.7316 -0.6337 -1.0756
  104DOPC   H5S14267   4.432   5.121   2.636  1.9123 -0.1242 -1.6038
  104DOPC   C2614268   4.555   5.029   2.779  0.3473  0.6992  0.1117
  104DOPC   H6R14269   4.648   5.077   2.743 -0.2473  2.0037  0.2646
  104DOPC   H6S14270   4.582   4.932   2.826  0.4821  1.3614  1.4576
  104DOPC   C2714271   4.507   5.126   2.890 -0.6138  0.1184 -0.1958
  104DOPC   H7R14272   4.505   5.224   2.838  2.7181  0.9566  1.0020
  104DOPC   H7S14273   4.591   5.118   2.962  1.3516  1.0484 -2.2593
  104DOPC   C2814274   4.377   5.099   2.956 -0.3396 -0.1844  1.0921
  104DOPC   H8R14275   4.357   4.992   2.978 -3.1720  0.0020 -0.1263
  104DOPC   H8S14276   4.303   5.127   2.877  1.0067 -2.3860 -1.1120
  104DOPC   C2914277   4.380   5.174   3.086 -0.4769  0.0346 -0.1068
  104DOPC   H9R14278   4.447   5.262   3.081  0.8729 -0.9304  0.2930
  104DOPC  C21014279   4.328   5.144   3.205  0.5895  0.0645  0.0318
  104DOPC  H10R14280   4.331   5.214   3.289 -0.2681 -0.4347  0.4790
  104DOPC  C21114281   4.232   5.028   3.229 -0.2614  0.0467  0.2197
  104DOPC  H11R14282   4.265   4.932   3.184 -1.8309  0.3608 -1.7482
  104DOPC  H11S14283   4.129   5.052   3.197 -1.2664 -1.7700  1.8695
  104DOPC  C21214284   4.203   5.000   3.386  0.2624 -0.4335 -0.1266
  104DOPC  H12R14285   4.156   5.095   3.420 -0.5981  0.1284 -2.6244
  104DOPC  H12S14286   4.302   4.985   3.432  0.9913 -3.0305 -2.2631
  104DOPC  C21314287   4.101   4.877   3.404  0.1454 -0.6339 -0.3138
  104DOPC  H13R14288   4.010   4.887   3.342 -0.0633 -2.8437 -0.4372
  104DOPC  H13S14289   4.056   4.879   3.506  2.0576 -0.2445  0.5761
  104DOPC  C21414290   4.160   4.737   3.367  0.5844  0.2152 -0.0359
  104DOPC  H14R14291   4.261   4.727   3.413  0.7467  1.1077 -0.1854
  104DOPC  H14S14292   4.173   4.737   3.256  0.1415 -1.9445 -0.1277
  104DOPC  C21514293   4.060   4.620   3.413 -0.9166 -0.7333  0.3457
  104DOPC  H15R14294   4.107   4.525   3.382 -0.0766 -0.4837  0.8267
  104DOPC  H15S14295   3.963   4.638   3.362  0.2507  1.0438 -1.4003
  104DOPC  C21614296   4.037   4.616   3.566 -0.0170  0.3576  0.5815
  104DOPC  H16R14297   3.983   4.520   3.572  0.4281  0.0319 -0.3831
  104DOPC  H16S14298   3.970   4.697   3.603 -2.3811 -1.5880  0.7888
  104DOPC  C21714299   4.155   4.602   3.656  0.3800 -0.0626  0.8586
  104DOPC  H17R14300   4.207   4.700   3.649 -0.1746  0.3487  2.1328
  104DOPC  H17S14301   4.227   4.526   3.620 -1.6130 -0.6605 -2.2519
  104DOPC  C21814302   4.115   4.589   3.803  0.0413 -0.1067  0.1100
  104DOPC  H18R14303   4.050   4.505   3.835 -1.8351  0.5639 -1.7052
  104DOPC  H18S14304   4.057   4.681   3.825 -0.8443 -0.4872 -0.5478
  104DOPC  H18T14305   4.207   4.586   3.865 -1.3380  0.6452  2.2987
  104DOPC   C3314306   4.481   5.479   2.585 -0.2038 -0.2006  0.5860
  104DOPC   H3X14307   4.589   5.460   2.602  0.2713  0.2623 -1.5501
  104DOPC   H3Y14308   4.434   5.394   2.638  0.9146 -0.2931  1.4753
  104DOPC   C3414309   4.439   5.611   2.641 -0.3535  0.0439  0.3221
  104DOPC   H4X14310   4.339   5.629   2.596 -0.2621  0.2831  0.2123
  104DOPC   H4Y14311   4.510   5.687   2.602  0.2619 -0.2984  0.7621
  104DOPC   C3514312   4.436   5.613   2.799 -0.3098 -0.4000 -0.1088
  104DOPC   H5X14313   4.371   5.530   2.834  0.6400 -1.4875 -0.8685
  104DOPC   H5Y14314   4.379   5.705   2.824  0.3206 -0.2921  1.0283
  104DOPC   C3614315   4.580   5.609   2.863  0.2533  0.6092 -0.0334
  104DOPC   H6X14316   4.626   5.511   2.837  1.1014  0.7679  0.8199
  104DOPC   H6Y14317   4.647   5.690   2.826  1.1660 -0.6800 -1.3066
  104DOPC   C3714318   4.571   5.594   3.014  0.6174  0.0692  0.0029
  104DOPC   H7X14319   4.495   5.517   3.037  1.2041 -1.0439 -1.5997
  104DOPC   H7Y14320   4.671   5.555   3.044  1.2275  1.8142  0.4061
  104DOPC   C3814321   4.541   5.722   3.084 -0.5241 -0.2680 -0.2891
  104DOPC   H8X14322   4.438   5.755   3.058 -1.0381 -1.3103  0.3933
  104DOPC   H8Y14323   4.602   5.812   3.061 -0.9914 -0.3645 -2.0770
  104DOPC   C3914324   4.542   5.713   3.233 -0.1819 -0.5031 -0.6592
  104DOPC   H9X14325   4.632   5.656   3.260  0.1184 -0.4433 -1.4981
  104DOPC  C31014326   4.463   5.761   3.328 -0.1029 -0.0771 -0.3893
  104DOPC  H10X14327   4.504   5.744   3.429 -0.6213  1.0625  0.0203
  104DOPC  C31114328   4.346   5.848   3.311 -0.3570  0.2941 -0.2672
  104DOPC  H11X14329   4.318   5.851   3.203  0.1069 -1.6824 -0.4784
  104DOPC  H11Y14330   4.375   5.949   3.344  2.2421 -0.1271 -1.0296
  104DOPC  C31214331   4.228   5.787   3.384  0.2469 -0.2151 -0.3389
  104DOPC  H12X14332   4.144   5.854   3.356 -0.4824 -0.7497  0.4998
  104DOPC  H12Y14333   4.245   5.793   3.494  2.6973 -0.0778 -0.6802
  104DOPC  C31314334   4.176   5.644   3.357  0.0820  0.1632  0.7060
  104DOPC  H13X14335   4.170   5.634   3.246  0.7188  1.5129  0.5270
  104DOPC  H13Y14336   4.257   5.573   3.383  1.4400  1.0120 -1.0055
  104DOPC  C31414337   4.045   5.610   3.436 -1.1017  0.1104  0.4244
  104DOPC  H14X14338   4.061   5.630   3.544 -0.4881 -0.0395  0.3609
  104DOPC  H14Y14339   3.954   5.671   3.414 -1.0075  0.4495  0.9683
  104DOPC  C31514340   4.011   5.465   3.400  0.1234  0.2981 -0.2172
  104DOPC  H15X14341   4.104   5.404   3.405  0.6130  0.9894 -0.7072
  104DOPC  H15Y14342   3.981   5.460   3.294 -1.4998 -0.4133  0.2451
  104DOPC  C31614343   3.915   5.397   3.494  0.9966  0.1180 -0.0532
  104DOPC  H16X14344   3.946   5.416   3.599 -2.2386  1.1167  0.8230
  104DOPC  H16Y14345   3.813   5.440   3.486  0.0011 -1.7694  1.6052
  104DOPC  C31714346   3.878   5.242   3.471 -0.1256  0.2814  0.1249
  104DOPC  H17X14347   3.971   5.189   3.498 -0.8058 -1.1524 -0.2618
  104DOPC  H17Y14348   3.797   5.218   3.544 -0.1263 -0.9542 -0.2563
  104DOPC  C31814349   3.849   5.209   3.325  0.7938 -0.0099  0.0147
  104DOPC  H18X14350   3.939   5.210   3.260  1.8337  1.3971  1.3938
  104DOPC  H18Y14351   3.795   5.112   3.329 -1.6601  1.3149  2.4614
  104DOPC  H18Z14352   3.778   5.284   3.284  0.0928 -1.3684 -1.3284
  105DOPC     N14353   0.170   3.014   1.953  0.1761 -0.0926  0.0696
  105DOPC   C1214354   0.171   2.958   2.090 -0.5546  0.3506 -0.3686
  105DOPC  H12A14355   0.233   3.023   2.151 -0.9308  1.3540 -1.0367
  105DOPC  H12B14356   0.229   2.868   2.075 -2.6183 -0.8621 -1.5452
  105DOPC   C1314357   0.098   2.926   1.851  0.1545  0.0571  0.1059
  105DOPC  H13A14358   0.095   2.961   1.749  1.0067 -3.1241 -1.1037
  105DOPC  H13B14359   0.144   2.829   1.844  1.1004  0.3221  1.8661
  105DOPC  H13C14360  -0.004   2.911   1.883  0.3243  1.3658  1.3781
  105DOPC   C1414361   0.311   3.034   1.918 -0.0550 -0.0635  0.1905
  105DOPC  H14A14362   0.351   2.940   1.882 -0.5658 -1.5032  3.1232
  105DOPC  H14B14363   0.307   3.114   1.845 -1.5402 -0.9077 -0.7233
  105DOPC  H14C14364   0.359   3.065   2.009  0.1682 -1.3801  0.5344
  105DOPC   C1514365   0.107   3.143   1.958  0.5053  0.0324  0.1898
  105DOPC  H15A14366   0.158   3.206   2.029 -0.7353  0.5268  0.6670
  105DOPC  H15B14367   0.004   3.123   1.984  0.0822 -0.7766 -1.9535
  105DOPC  H15C14368   0.106   3.182   1.858  0.6682  1.3762  0.6876
  105DOPC   C1114369   0.036   2.923   2.160  0.1523 -0.4108  0.6433
  105DOPC  H11A14370   0.050   2.890   2.265 -0.3791 -2.2951  0.1499
  105DOPC  H11B14371  -0.023   3.017   2.154 -1.0283 -1.0656  1.5537
  105DOPC     P14372  -0.005   2.667   2.115 -0.3409 -0.1929 -0.1288
  105DOPC   O1314373   0.126   2.661   2.184  0.6082 -0.7646  0.1544
  105DOPC   O1414374  -0.018   2.596   1.988  0.2857  0.3560  0.2260
  105DOPC   O1214375  -0.037   2.824   2.081  0.5178  0.0880  0.7756
  105DOPC   O1114376  -0.125   2.630   2.208  0.0556  0.4623  0.7506
  105DOPC    C114377  -0.116   2.503   2.273 -0.4251  0.4674  0.0014
  105DOPC    HA14378  -0.071   2.420   2.214 -0.9339 -1.0195  1.6265
  105DOPC    HB14379  -0.219   2.460   2.279  0.4426 -2.2763 -2.4552
  105DOPC    C214380  -0.054   2.510   2.416 -0.7875 -0.6310 -1.1280
  105DOPC    HS14381   0.055   2.526   2.402 -0.6925 -0.1401  0.0421
  105DOPC   O2114382  -0.087   2.387   2.486 -0.0044  0.5928 -0.0851
  105DOPC   C2114383  -0.016   2.334   2.586 -0.7585  0.2198  0.1674
  105DOPC   O2214384   0.088   2.376   2.626 -0.2805 -0.8034 -0.3224
  105DOPC   C2214385  -0.104   2.227   2.662 -0.0149  0.3544 -0.4395
  105DOPC   H2R14386  -0.113   2.143   2.590  1.3022 -0.9584  0.8658
  105DOPC   H2S14387  -0.206   2.266   2.684  0.5676  2.2366 -0.8806
  105DOPC    C314388  -0.095   2.643   2.487  0.5274 -0.1792 -0.1241
  105DOPC    HX14389  -0.205   2.631   2.499  0.5412  0.3872  0.6658
  105DOPC    HY14390  -0.087   2.738   2.431 -0.3664  0.5054  0.8656
  105DOPC   O3114391  -0.045   2.657   2.622 -0.7998  0.2081 -0.2136
  105DOPC   C3114392   0.085   2.669   2.643 -0.8328  0.2415 -0.0884
  105DOPC   O3214393   0.170   2.694   2.555 -0.0148 -0.1940 -0.5813
  105DOPC   C3214394   0.115   2.664   2.799  0.1237 -0.6302 -0.3795
  105DOPC   H2X14395   0.042   2.590   2.838 -1.7251  0.8822 -0.8239
  105DOPC   H2Y14396   0.217   2.621   2.810  0.9812  1.5224  0.6508
  105DOPC   C2314397  -0.051   2.161   2.792 -0.6717 -0.9749  0.3119
  105DOPC   H3R14398  -0.041   2.243   2.866  2.0480 -0.0464 -0.9523
  105DOPC   H3S14399   0.050   2.119   2.771 -0.5605 -1.6245  2.0472
  105DOPC   C2414400  -0.146   2.055   2.830  0.0076  0.2819 -0.1549
  105DOPC   H4R14401  -0.165   1.990   2.742 -2.3871  1.8029 -0.8329
  105DOPC   H4S14402  -0.242   2.106   2.853  0.6563  1.1880  0.6136
  105DOPC   C2514403  -0.102   1.970   2.954  0.1242 -0.0240  0.2455
  105DOPC   H5R14404   0.003   1.937   2.941  0.2330  0.7870 -1.1909
  105DOPC   H5S14405  -0.167   1.881   2.965  1.1054 -1.3168 -3.1891
  105DOPC   C2614406  -0.111   2.048   3.084 -0.2782  0.1500  0.0941
  105DOPC   H6R14407  -0.215   2.088   3.083 -1.4438 -2.6436 -1.4234
  105DOPC   H6S14408  -0.025   2.119   3.081  0.8590 -1.1912 -0.1590
  105DOPC   C2714409  -0.097   1.964   3.213  0.2927 -0.2038 -0.3954
  105DOPC   H7R14410  -0.008   1.899   3.200  0.5960  0.2419 -0.5764
  105DOPC   H7S14411  -0.191   1.905   3.224  0.3503 -0.0225  1.3474
  105DOPC   C2814412  -0.076   2.051   3.340  0.0681 -0.5880  0.4437
  105DOPC   H8R14413  -0.167   2.111   3.364  0.7111  0.0152  1.4452
  105DOPC   H8S14414   0.005   2.127   3.350 -0.2513 -0.4010  1.7723
  105DOPC   C2914415  -0.043   1.945   3.452  0.4239 -0.2281  0.8243
  105DOPC   H9R14416   0.046   1.881   3.445  1.0723  0.5056  1.9240
  105DOPC  C21014417  -0.127   1.913   3.554  0.0122  0.0775  0.0835
  105DOPC  H10R14418  -0.084   1.846   3.630 -1.5947  0.0333  1.0175
  105DOPC  C21114419  -0.258   1.982   3.605 -0.4541  0.5484 -0.1167
  105DOPC  H11R14420  -0.339   1.909   3.585 -1.1055  0.5968  2.0924
  105DOPC  H11S14421  -0.278   2.077   3.551 -4.6023  0.1979  0.5130
  105DOPC  C21214422  -0.265   2.001   3.757 -0.4967 -0.5320  0.1397
  105DOPC  H12R14423  -0.170   2.054   3.780 -0.8792 -1.2957  4.3588
  105DOPC  H12S14424  -0.256   1.901   3.804 -0.8590 -1.5189 -1.7876
  105DOPC  C21314425  -0.393   2.074   3.789 -0.5181  0.8569 -0.5681
  105DOPC  H13R14426  -0.481   2.025   3.742  0.1157  1.5160 -2.5381
  105DOPC  H13S14427  -0.388   2.174   3.741  1.1318  0.9194 -0.3406
  105DOPC  C21414428  -0.421   2.112   3.939  0.4632  0.0285  0.0056
  105DOPC  H14R14429  -0.323   2.147   3.978  0.7510 -0.3159 -0.4126
  105DOPC  H14S14430  -0.451   2.021   3.995 -2.0322 -0.1831 -1.4983
  105DOPC  C21514431  -0.521   2.224   3.948  0.4276  0.3500 -0.1995
  105DOPC  H15R14432  -0.615   2.208   3.892 -1.2832  0.3173  2.4860
  105DOPC  H15S14433  -0.474   2.313   3.901 -2.3190  0.3827 -3.2690
  105DOPC  C21614434  -0.568   2.241   4.090  0.3074  0.4116 -0.2412
  105DOPC  H16R14435  -0.629   2.155   4.122 -0.6961  1.5887  1.1508
  105DOPC  H16S14436  -0.645   2.321   4.096 -1.5109 -1.2642 -0.1744
  105DOPC  C21714437  -0.461   2.264   4.199 -0.2004 -0.6405 -0.2699
  105DOPC  H17R14438  -0.390   2.178   4.204  0.9008  0.2973  0.9658
  105DOPC  H17S14439  -0.510   2.267   4.299  1.4719 -3.3767  0.7458
  105DOPC  C21814440  -0.375   2.386   4.190  0.7201  0.0186  0.5302
  105DOPC  H18R14441  -0.301   2.394   4.272  3.2236 -3.5486 -1.0979
  105DOPC  H18S14442  -0.441   2.475   4.189  0.9810  0.2281  1.3641
  105DOPC  H18T14443  -0.330   2.376   4.088  0.3969 -0.0860  0.3959
  105DOPC   C3314444   0.093   2.804   2.855  0.0060  0.3643  0.3800
  105DOPC   H3X14445   0.107   2.798   2.965  1.1958  2.6077  0.4005
  105DOPC   H3Y14446  -0.011   2.839   2.842  0.2710  1.3715  0.8722
  105DOPC   C3414447   0.186   2.907   2.795 -0.5543 -0.2498  0.0561
  105DOPC   H4X14448   0.164   2.918   2.687  2.0122  0.6777 -0.4457
  105DOPC   H4Y14449   0.294   2.884   2.795  0.0363  2.2442 -0.3377
  105DOPC   C3514450   0.168   3.043   2.867  0.5227  0.6223  0.0565
  105DOPC   H5X14451   0.064   3.081   2.875  0.8256  1.9003 -1.4724
  105DOPC   H5Y14452   0.207   3.124   2.801  0.5483 -0.1820 -0.9408
  105DOPC   C3614453   0.239   3.040   3.005  0.3662 -0.6449  0.3828
  105DOPC   H6X14454   0.205   3.133   3.055 -0.1710 -0.5831 -0.0830
  105DOPC   H6Y14455   0.186   2.967   3.070 -0.5363  0.9555  1.4883
  105DOPC   C3714456   0.394   3.022   3.006  0.5926  0.9211 -0.2820
  105DOPC   H7X14457   0.426   3.038   3.111  0.8146 -1.7062  0.1298
  105DOPC   H7Y14458   0.426   2.918   2.985  0.4086  0.8523 -0.2272
  105DOPC   C3814459   0.477   3.118   2.907  0.1316  1.3295 -0.4770
  105DOPC   H8X14460   0.457   3.220   2.948 -1.3391  0.3651  1.3809
  105DOPC   H8Y14461   0.428   3.112   2.807  2.3679  0.3899 -1.5652
  105DOPC   C3914462   0.621   3.085   2.890  0.2730  0.6008 -0.1119
  105DOPC   H9X14463   0.647   3.077   2.783  0.5232 -1.2481  0.0525
  105DOPC  C31014464   0.718   3.075   2.987 -0.3620 -0.9250  0.2742
  105DOPC  H10X14465   0.819   3.050   2.950  1.0969 -0.0752  3.3526
  105DOPC  C31114466   0.705   3.094   3.131 -0.1299  0.2450  0.0279
  105DOPC  H11X14467   0.666   3.000   3.176  0.7123  0.6821  1.7459
  105DOPC  H11Y14468   0.637   3.180   3.152 -0.6353 -0.4698  1.5005
  105DOPC  C31214469   0.837   3.136   3.192 -0.3006  0.5126 -0.7606
  105DOPC  H12X14470   0.866   3.234   3.148  2.7782  1.1476  2.2880
  105DOPC  H12Y14471   0.919   3.062   3.178  1.7269  2.7617 -1.5076
  105DOPC  C31314472   0.825   3.159   3.340 -0.5117  0.7516 -0.5642
  105DOPC  H13X14473   0.751   3.241   3.352 -2.4593 -1.1133  1.0480
  105DOPC  H13Y14474   0.773   3.070   3.383  0.0953  1.3227  1.4786
  105DOPC  C31414475   0.961   3.183   3.418 -0.1913 -0.0207 -0.2250
  105DOPC  H14X14476   1.029   3.099   3.392  0.5674  0.4491  0.1943
  105DOPC  H14Y14477   1.007   3.279   3.385  0.0848 -0.0988 -0.0737
  105DOPC  C31514478   0.928   3.185   3.569 -0.3239  0.4419  0.2036
  105DOPC  H15X14479   1.025   3.193   3.622 -0.1294  2.1845 -0.3650
  105DOPC  H15Y14480   0.885   3.086   3.597 -0.5306  0.5813  0.3879
  105DOPC  C31614481   0.836   3.302   3.612  0.0571  0.2089  0.3890
  105DOPC  H16X14482   0.886   3.393   3.574  1.4422 -0.1799  1.2256
  105DOPC  H16Y14483   0.731   3.291   3.577  0.1492  2.1480 -0.6460
  105DOPC  C31714484   0.829   3.316   3.764 -0.5377 -0.6102  0.1616
  105DOPC  H17X14485   0.799   3.219   3.808  1.3752 -1.7506 -0.9440
  105DOPC  H17Y14486   0.934   3.340   3.791  0.2160 -1.4903 -1.8669
  105DOPC  C31814487   0.744   3.435   3.819  0.5413 -0.4877 -0.6024
  105DOPC  H18X14488   0.641   3.440   3.777  0.2462 -0.9170  0.0654
  105DOPC  H18Y14489   0.742   3.416   3.928 -0.3147 -1.5662 -0.7869
  105DOPC  H18Z14490   0.794   3.530   3.790  0.8700 -0.6252 -0.4951
  106DOPC     N14491   0.557   6.727   1.976  0.0962  0.6256  0.4726
  106DOPC   C1214492   0.538   6.641   2.097 -0.2965 -0.0794  0.2462
  106DOPC  H12A14493   0.440   6.660   2.137 -0.7018  1.0945 -1.2584
  106DOPC  H12B14494   0.609   6.672   2.172  0.3757  1.3912 -0.9564
  106DOPC   C1314495   0.469   6.684   1.862 -0.2205 -0.5961 -0.2090
  106DOPC  H13A14496   0.512   6.602   1.807 -0.4358  0.3433 -1.8515
  106DOPC  H13B14497   0.368   6.656   1.888 -0.6060 -0.8733 -1.8407
  106DOPC  H13C14498   0.471   6.760   1.785  2.4389 -2.1774 -1.8429
  106DOPC   C1414499   0.706   6.728   1.936  0.7976  0.0453  0.3324
  106DOPC  H14A14500   0.764   6.798   1.994 -0.6971  0.3103  1.5873
  106DOPC  H14B14501   0.746   6.628   1.925  0.0682 -0.0106 -2.8457
  106DOPC  H14C14502   0.710   6.758   1.833 -2.2452 -0.6491 -0.1075
  106DOPC   C1514503   0.519   6.880   1.998  0.0761  0.5769 -0.5574
  106DOPC  H15A14504   0.416   6.890   2.028 -0.3934 -2.5821 -0.7385
  106DOPC  H15B14505   0.535   6.921   1.899 -1.5640  0.8130 -0.7584
  106DOPC  H15C14506   0.591   6.937   2.055  0.3259 -2.3348  2.3122
  106DOPC   C1114507   0.553   6.490   2.083 -0.2781  0.4151 -0.1720
  106DOPC  H11A14508   0.646   6.476   2.024 -1.6387  0.4748 -2.4655
  106DOPC  H11B14509   0.570   6.437   2.179  0.5988 -0.1061 -0.6020
  106DOPC     P14510   0.296   6.443   2.045  0.1141 -0.1518 -0.4288
  106DOPC   O1314511   0.228   6.508   1.932 -0.2122 -0.1984  0.1136
  106DOPC   O1414512   0.290   6.504   2.179 -0.0133 -0.0874  0.4654
  106DOPC   O1214513   0.443   6.431   2.008 -0.4377 -0.3964 -0.4187
  106DOPC   O1114514   0.249   6.295   2.049  0.1648 -0.1131  0.1247
  106DOPC    C114515   0.319   6.185   2.110  0.7518  0.3399  0.0535
  106DOPC    HA14516   0.421   6.215   2.142  0.5784  1.9310 -0.7782
  106DOPC    HB14517   0.317   6.093   2.048  0.5369 -0.2296  0.8962
  106DOPC    C214518   0.240   6.128   2.238 -0.1147 -0.0367  0.0193
  106DOPC    HS14519   0.151   6.067   2.213  0.5379 -0.9995 -0.0229
  106DOPC   O2114520   0.213   6.243   2.332 -1.0810  0.0377  0.2481
  106DOPC   C2114521   0.084   6.278   2.325 -0.1648 -0.7013  0.6729
  106DOPC   O2214522   0.008   6.246   2.236 -0.3458 -0.2402 -0.1712
  106DOPC   C2214523   0.049   6.369   2.441 -0.1676  0.0573 -0.0362
  106DOPC   H2R14524   0.101   6.467   2.439  1.1816 -0.6289  0.0370
  106DOPC   H2S14525   0.086   6.311   2.528  1.8898  0.9206 -0.2749
  106DOPC    C314526   0.344   6.038   2.303 -0.8959  0.6793 -0.5132
  106DOPC    HX14527   0.442   6.088   2.320 -0.6016 -0.0417 -0.0699
  106DOPC    HY14528   0.360   5.958   2.228 -1.8855 -2.5224  2.4144
  106DOPC   O3114529   0.292   5.973   2.421 -0.1890  0.3358 -0.2282
  106DOPC   C3114530   0.308   6.039   2.532 -0.2660  0.4789  0.4781
  106DOPC   O3214531   0.382   6.134   2.543 -0.1221  0.0937 -0.2890
  106DOPC   C3214532   0.228   5.963   2.637 -0.1438 -0.0503  0.5748
  106DOPC   H2X14533   0.119   5.987   2.630 -0.3615 -1.1456 -0.0982
  106DOPC   H2Y14534   0.235   5.855   2.612  2.7482  0.1778  0.0490
  106DOPC   C2314535  -0.100   6.387   2.453  0.1418 -0.2519 -0.4147
  106DOPC   H3R14536  -0.150   6.288   2.440 -2.2269  0.6329  1.2044
  106DOPC   H3S14537  -0.131   6.450   2.367 -0.9025 -1.2836 -0.8297
  106DOPC   C2414538  -0.147   6.455   2.581 -0.6397  0.0668 -0.4712
  106DOPC   H4R14539  -0.239   6.514   2.562 -1.4424 -0.5174  1.3541
  106DOPC   H4S14540  -0.081   6.538   2.616 -1.7209  0.5609  0.4763
  106DOPC   C2514541  -0.164   6.363   2.708 -0.1763  0.4410 -0.1924
  106DOPC   H5R14542  -0.117   6.414   2.795 -0.5876  0.3556  0.0845
  106DOPC   H5S14543  -0.110   6.271   2.679  0.3346  0.4555  0.6806
  106DOPC   C2614544  -0.304   6.334   2.743 -0.2690 -1.0555  0.4218
  106DOPC   H6R14545  -0.348   6.297   2.648 -0.4495  4.6285 -2.1057
  106DOPC   H6S14546  -0.351   6.431   2.769  2.5777  0.9435 -1.2910
  106DOPC   C2714547  -0.306   6.242   2.856  0.6506  0.5728 -0.6637
  106DOPC   H7R14548  -0.248   6.274   2.945  0.2303 -2.0463  0.6390
  106DOPC   H7S14549  -0.243   6.160   2.816  2.0329  0.7590  1.0295
  106DOPC   C2814550  -0.453   6.202   2.885  0.2176  0.9364 -0.6661
  106DOPC   H8R14551  -0.522   6.184   2.800 -0.8760 -0.8509  0.5144
  106DOPC   H8S14552  -0.499   6.288   2.938 -1.9843 -0.4670 -0.1315
  106DOPC   C2914553  -0.474   6.077   2.971 -0.3307 -0.6826 -0.4136
  106DOPC   H9R14554  -0.506   5.990   2.911 -2.3631 -0.5782  0.4446
  106DOPC  C21014555  -0.463   6.078   3.108  0.7966  0.5425  0.1568
  106DOPC  H10R14556  -0.498   5.984   3.155 -0.8936  0.1797 -1.6683
  106DOPC  C21114557  -0.434   6.194   3.201 -0.3807  0.3302  0.5399
  106DOPC  H11R14558  -0.527   6.248   3.230  0.0796  1.1543  0.5410
  106DOPC  H11S14559  -0.361   6.261   3.151 -0.0662 -1.4313 -1.5086
  106DOPC  C21214560  -0.363   6.159   3.330 -0.1363 -0.6891 -0.1287
  106DOPC  H12R14561  -0.347   6.254   3.386  0.8281 -0.6233 -0.5031
  106DOPC  H12S14562  -0.259   6.127   3.307  1.4072  2.8296  1.2411
  106DOPC  C21314563  -0.412   6.059   3.434  0.1412 -0.3177  0.4029
  106DOPC  H13R14564  -0.460   5.970   3.387  1.1247 -0.6299 -0.0258
  106DOPC  H13S14565  -0.500   6.113   3.475 -0.9053 -1.0788 -0.7670
  106DOPC  C21414566  -0.303   6.015   3.535  0.3860  0.4862  0.2871
  106DOPC  H14R14567  -0.261   6.102   3.590  0.8060  0.7203 -0.3943
  106DOPC  H14S14568  -0.225   5.973   3.468 -2.0132 -1.4330 -1.4604
  106DOPC  C21514569  -0.358   5.908   3.631 -0.0176 -0.9030 -0.6815
  106DOPC  H15R14570  -0.410   5.829   3.572 -0.7260  0.2030 -1.5716
  106DOPC  H15S14571  -0.438   5.962   3.685  2.8341  2.0594  0.8729
  106DOPC  C21614572  -0.250   5.852   3.728  0.3991  0.2099 -0.0917
  106DOPC  H16R14573  -0.304   5.806   3.813  0.7365  0.1672  0.0979
  106DOPC  H16S14574  -0.203   5.946   3.763  2.8453 -1.2634  0.7588
  106DOPC  C21714575  -0.144   5.756   3.662  0.0698  0.1934 -0.6390
  106DOPC  H17R14576  -0.109   5.800   3.566 -0.0827 -0.4407 -0.9917
  106DOPC  H17S14577  -0.206   5.665   3.651  3.1845 -2.1184 -0.5838
  106DOPC  C21814578  -0.026   5.722   3.755  0.2182  0.0606  0.1725
  106DOPC  H18R14579   0.037   5.811   3.771  0.7838 -0.4468  0.8090
  106DOPC  H18S14580   0.047   5.655   3.705 -0.8791 -0.2440 -1.0931
  106DOPC  H18T14581  -0.052   5.673   3.851 -0.5854 -0.4059 -0.2640
  106DOPC   C3314582   0.271   5.963   2.789 -0.0671  0.1193  0.0810
  106DOPC   H3X14583   0.380   5.947   2.805 -0.2312  0.4324  1.6386
  106DOPC   H3Y14584   0.227   5.876   2.842  1.6440 -0.1038  1.2170
  106DOPC   C3414585   0.232   6.092   2.866 -0.5017  0.7555 -0.1705
  106DOPC   H4X14586   0.122   6.098   2.880 -0.3304  2.5585  0.6296
  106DOPC   H4Y14587   0.256   6.175   2.797 -0.2663  0.7640 -0.0783
  106DOPC   C3514588   0.305   6.110   2.997  0.1220 -0.5502 -0.1451
  106DOPC   H5X14589   0.415   6.106   2.984  0.2598  1.2884  0.2427
  106DOPC   H5Y14590   0.280   6.025   3.065  0.9171  0.0888  0.9848
  106DOPC   C3614591   0.284   6.248   3.074 -0.1716  1.2313  0.2359
  106DOPC   H6X14592   0.336   6.254   3.172 -1.6192 -1.7830  1.3146
  106DOPC   H6Y14593   0.319   6.331   3.009  0.8437  0.8931  0.3345
  106DOPC   C3714594   0.135   6.290   3.084 -0.3653 -0.9478  0.2843
  106DOPC   H7X14595   0.094   6.305   2.982 -0.2510 -1.5157  0.1516
  106DOPC   H7Y14596   0.078   6.204   3.126 -1.2492 -1.0124 -0.9916
  106DOPC   C3814597   0.111   6.427   3.163 -0.7221 -0.4601  0.0010
  106DOPC   H8X14598   0.190   6.502   3.139 -0.3990 -0.7905  0.0248
  106DOPC   H8Y14599   0.124   6.393   3.268  1.3738 -3.8063 -1.1722
  106DOPC   C3914600  -0.031   6.473   3.145 -0.0159 -0.1700  0.3083
  106DOPC   H9X14601  -0.068   6.442   3.046  3.2253 -1.0832 -0.7458
  106DOPC  C31014602  -0.102   6.536   3.232  0.1589 -0.4848 -1.6295
  106DOPC  H10X14603  -0.211   6.534   3.220  0.0118 -0.3987 -0.4014
  106DOPC  C31114604  -0.047   6.575   3.370  0.1234 -0.4962 -0.0597
  106DOPC  H11X14605  -0.046   6.686   3.376 -0.6401 -0.2318 -3.3136
  106DOPC  H11Y14606   0.051   6.533   3.403 -0.0166 -1.8550 -1.2841
  106DOPC  C31214607  -0.144   6.543   3.476  0.2212  0.2889 -0.2651
  106DOPC  H12X14608  -0.165   6.433   3.475  0.4356  0.2365 -1.6209
  106DOPC  H12Y14609  -0.245   6.588   3.461  0.2467  0.1269 -0.9487
  106DOPC  C31314610  -0.093   6.597   3.610  0.1430 -0.2384  0.5934
  106DOPC  H13X14611   0.015   6.574   3.624 -0.3832 -1.4985  3.1438
  106DOPC  H13Y14612  -0.091   6.707   3.626  1.4251 -0.3154  1.0783
  106DOPC  C31414613  -0.168   6.544   3.733  0.2274  0.1995 -0.1716
  106DOPC  H14X14614  -0.269   6.587   3.716  1.2084  2.0354 -1.9472
  106DOPC  H14Y14615  -0.171   6.434   3.722  1.8844  0.2769 -1.9224
  106DOPC  C31514616  -0.114   6.591   3.867 -0.5048 -0.2746 -0.3862
  106DOPC  H15X14617  -0.130   6.700   3.878 -2.1140 -0.7274  3.2440
  106DOPC  H15Y14618  -0.004   6.575   3.861 -0.4898  0.1074 -1.1963
  106DOPC  C31614619  -0.183   6.525   3.990  0.1258  0.5686  0.2376
  106DOPC  H16X14620  -0.288   6.555   3.972 -0.2996  0.1022  1.7774
  106DOPC  H16Y14621  -0.165   6.416   3.999  1.9680  0.8479  0.4253
  106DOPC  C31714622  -0.133   6.570   4.128  0.3700 -0.3560 -1.0969
  106DOPC  H17X14623  -0.023   6.560   4.123  0.7435  1.2725  1.6964
  106DOPC  H17Y14624  -0.150   6.679   4.139 -1.7320 -0.8701  2.0181
  106DOPC  C31814625  -0.195   6.501   4.245  0.7718  0.2212  0.1059
  106DOPC  H18X14626  -0.184   6.549   4.345  0.7895 -0.1405  0.2785
  106DOPC  H18Y14627  -0.303   6.496   4.223  1.0260 -0.6301 -1.0350
  106DOPC  H18Z14628  -0.161   6.395   4.252 -1.3163 -0.4318  1.2603
  107DOPC     N14629   1.329   0.528   1.844  0.3730  0.3304 -0.2878
  107DOPC   C1214630   1.305   0.473   1.988  0.3780 -0.1824  0.9641
  107DOPC  H12A14631   1.287   0.553   2.059 -0.6778 -1.6312  2.3817
  107DOPC  H12B14632   1.392   0.422   2.026  0.9732  0.2002  0.1444
  107DOPC   C1314633   1.354   0.425   1.738 -0.1586 -0.4753 -0.1308
  107DOPC  H13A14634   1.413   0.342   1.773 -2.7390 -1.5356  1.9969
  107DOPC  H13B14635   1.264   0.391   1.689 -0.4792 -0.3661  0.3822
  107DOPC  H13C14636   1.413   0.472   1.659 -2.7741 -2.0160 -3.2382
  107DOPC   C1414637   1.447   0.621   1.849 -0.2031 -0.5546 -0.1392
  107DOPC  H14A14638   1.528   0.552   1.865 -0.6973 -0.6782  2.1407
  107DOPC  H14B14639   1.455   0.682   1.760  1.8961  0.6201  0.7654
  107DOPC  H14C14640   1.447   0.688   1.935 -0.9002 -1.7928  0.8613
  107DOPC   C1514641   1.211   0.612   1.802  0.7614 -0.1804  0.2153
  107DOPC  H15A14642   1.120   0.554   1.808  1.7189 -1.9340 -1.0942
  107DOPC  H15B14643   1.231   0.664   1.709 -1.7580  0.1875 -0.1896
  107DOPC  H15C14644   1.197   0.688   1.878 -1.7156 -1.3683  1.0491
  107DOPC   C1114645   1.189   0.374   1.997  0.0260  0.2930  0.1616
  107DOPC  H11A14646   1.186   0.309   1.907  0.1984 -0.3851  0.6382
  107DOPC  H11B14647   1.228   0.311   2.080  1.1246 -0.2373 -0.7126
  107DOPC     P14648   0.944   0.368   2.056  0.2315  0.1905  0.0163
  107DOPC   O1314649   0.973   0.223   2.038  0.0236 -0.2112  0.3929
  107DOPC   O1414650   0.824   0.418   1.978 -0.4898  0.3627  0.2330
  107DOPC   O1214651   1.070   0.451   2.022  0.1081 -0.3495 -0.3451
  107DOPC   O1114652   0.914   0.401   2.202  0.0923  0.2444 -0.8652
  107DOPC    C114653   1.007   0.351   2.303 -0.0796  0.1185 -0.2740
  107DOPC    HA14654   1.113   0.352   2.270  0.0683 -0.7755  0.1338
  107DOPC    HB14655   0.986   0.243   2.323 -1.2247  0.4737  0.6098
  107DOPC    C214656   1.008   0.431   2.435  0.3757 -0.5740  0.1681
  107DOPC    HS14657   1.100   0.390   2.483  0.4561 -0.0003  0.5069
  107DOPC   O2114658   0.888   0.421   2.513  0.5886 -0.8546 -0.3757
  107DOPC   C2114659   0.874   0.306   2.574 -0.5477  0.5003  0.0310
  107DOPC   O2214660   0.966   0.225   2.589  0.2624  0.2614 -0.0791
  107DOPC   C2214661   0.731   0.297   2.608 -0.1619  0.0113 -0.0246
  107DOPC   H2R14662   0.710   0.197   2.651 -3.0384 -0.0446 -1.3111
  107DOPC   H2S14663   0.685   0.312   2.508 -0.7520 -3.1498 -0.3322
  107DOPC    C314664   1.047   0.573   2.416  0.6536  0.5271  0.0161
  107DOPC    HX14665   0.979   0.616   2.339  0.7298  0.0794 -0.3050
  107DOPC    HY14666   1.149   0.594   2.377  0.3457  0.5541 -0.8018
  107DOPC   O3114667   1.039   0.640   2.545  0.9316  0.0211  0.2654
  107DOPC   C3114668   0.960   0.744   2.561 -0.0119  0.1443  0.2027
  107DOPC   O3214669   0.898   0.802   2.476  0.4404  0.2301 -0.1728
  107DOPC   C3214670   0.976   0.793   2.704 -0.6468  0.0944  0.3323
  107DOPC   H2X14671   1.062   0.743   2.753 -0.7332 -0.4950 -0.1114
  107DOPC   H2Y14672   1.005   0.901   2.709  1.7418 -0.5587  2.4082
  107DOPC   C2314673   0.704   0.410   2.712 -0.2304  0.0128  0.9199
  107DOPC   H3R14674   0.595   0.430   2.699 -0.6629 -1.0366  2.6040
  107DOPC   H3S14675   0.752   0.504   2.677 -0.5072 -0.6391 -1.4009
  107DOPC   C2414676   0.739   0.386   2.857 -0.1467 -0.6771  0.3226
  107DOPC   H4R14677   0.727   0.480   2.914  0.2960 -0.5634  0.2320
  107DOPC   H4S14678   0.845   0.354   2.861 -0.3122 -1.4399 -0.8299
  107DOPC   C2514679   0.673   0.263   2.928 -0.6901 -0.0295 -0.1429
  107DOPC   H5R14680   0.714   0.165   2.896 -0.6346 -0.2761  0.6567
  107DOPC   H5S14681   0.564   0.257   2.904 -0.4114 -0.9432 -1.2672
  107DOPC   C2614682   0.688   0.269   3.087  0.1947 -0.4603  0.1014
  107DOPC   H6R14683   0.788   0.309   3.117 -1.1266  1.9305  1.6192
  107DOPC   H6S14684   0.678   0.167   3.130 -0.0486 -1.1697 -1.5988
  107DOPC   C2714685   0.591   0.366   3.159  0.0707  0.5989  0.0390
  107DOPC   H7R14686   0.626   0.470   3.140  1.5868 -0.2961 -2.6263
  107DOPC   H7S14687   0.611   0.363   3.268  3.0928  3.0411 -0.3176
  107DOPC   C2814688   0.440   0.343   3.134 -0.4560  0.3312  0.0419
  107DOPC   H8R14689   0.437   0.374   3.028 -0.9440  0.0335 -0.0289
  107DOPC   H8S14690   0.384   0.422   3.189  1.0770  2.7305 -1.6880
  107DOPC   C2914691   0.370   0.209   3.148 -0.1414 -0.3721 -0.5955
  107DOPC   H9R14692   0.375   0.166   3.047 -0.6274  0.2265 -0.8842
  107DOPC  C21014693   0.298   0.160   3.255 -0.3520 -0.0232 -0.0044
  107DOPC  H10R14694   0.242   0.067   3.240  1.3738 -0.8762 -1.5595
  107DOPC  C21114695   0.301   0.226   3.385 -0.1092  0.0334  0.2468
  107DOPC  H11R14696   0.367   0.315   3.383  0.7920 -0.6392 -0.4607
  107DOPC  H11S14697   0.355   0.166   3.461 -0.6108  0.6842  1.1431
  107DOPC  C21214698   0.162   0.264   3.435 -0.0972  0.6570  0.5728
  107DOPC  H12R14699   0.092   0.177   3.434  1.2181 -0.4257  0.7598
  107DOPC  H12S14700   0.118   0.340   3.367 -2.5476 -1.5182 -0.4668
  107DOPC  C21314701   0.147   0.301   3.585 -0.1860 -0.4132 -0.1406
  107DOPC  H13R14702   0.051   0.352   3.610  0.0677 -0.9260  2.0854
  107DOPC  H13S14703   0.219   0.385   3.594 -0.4794 -0.1261 -0.4047
  107DOPC  C21414704   0.180   0.195   3.688  0.0604 -0.5378 -0.8764
  107DOPC  H14R14705   0.282   0.152   3.674  0.9455  1.1987 -0.1222
  107DOPC  H14S14706   0.101   0.118   3.689 -1.8766  1.2251  2.7450
  107DOPC  C21514707   0.181   0.256   3.836  0.1462 -0.6415 -0.2033
  107DOPC  H15R14708   0.249   0.344   3.841  1.8444 -1.8536 -0.6890
  107DOPC  H15S14709   0.219   0.178   3.906  0.2899  0.5103  1.0282
  107DOPC  C21614710   0.047   0.306   3.894  0.1865  0.1035  0.1659
  107DOPC  H16R14711   0.041   0.278   4.001 -1.0939 -0.4207 -0.0210
  107DOPC  H16S14712  -0.030   0.244   3.844  0.7533 -0.6364  0.1808
  107DOPC  C21714713   0.015   0.455   3.887  0.5541 -0.1195 -0.1454
  107DOPC  H17R14714   0.028   0.480   3.780 -1.5180 -0.7890 -0.5978
  107DOPC  H17S14715   0.081   0.517   3.952 -1.4311  1.3714  0.5287
  107DOPC  C21814716  -0.121   0.485   3.946 -0.3986 -0.0728  0.3408
  107DOPC  H18R14717  -0.123   0.474   4.057  0.1892 -0.1551  0.3471
  107DOPC  H18S14718  -0.205   0.438   3.891 -0.9663  1.5891 -0.2807
  107DOPC  H18T14719  -0.138   0.591   3.918 -0.0644 -0.4068 -1.2576
  107DOPC   C3314720   0.843   0.777   2.774 -0.5253  0.0038 -0.2729
  107DOPC   H3X14721   0.853   0.823   2.875 -1.6806  2.2029 -1.0918
  107DOPC   H3Y14722   0.812   0.671   2.786 -2.2652  0.1014 -3.0638
  107DOPC   C3414723   0.727   0.845   2.708 -0.1767 -0.2868 -0.2891
  107DOPC   H4X14724   0.687   0.772   2.634 -2.6665 -1.0511  1.6530
  107DOPC   H4Y14725   0.757   0.935   2.651  0.7599 -0.1952  0.3310
  107DOPC   C3514726   0.607   0.885   2.799  0.9196  0.1238  0.3579
  107DOPC   H5X14727   0.548   0.961   2.744  1.6743 -0.2402 -0.9921
  107DOPC   H5Y14728   0.649   0.939   2.887 -1.8456  0.7681  1.3785
  107DOPC   C3614729   0.514   0.771   2.844 -0.0153 -0.0431 -0.2280
  107DOPC   H6X14730   0.452   0.737   2.758  0.7000  1.1444 -1.2368
  107DOPC   H6Y14731   0.563   0.683   2.890 -0.6779 -0.0121  0.5615
  107DOPC   C3714732   0.408   0.826   2.947  0.3739  0.2512  0.0675
  107DOPC   H7X14733   0.383   0.923   2.899  1.1826  0.9557  1.0297
  107DOPC   H7Y14734   0.315   0.766   2.949  0.2171  0.4895 -0.1092
  107DOPC   C3814735   0.456   0.858   3.086  0.5649 -0.3788 -0.1288
  107DOPC   H8X14736   0.370   0.883   3.152  0.5139 -0.1019 -0.2986
  107DOPC   H8Y14737   0.525   0.944   3.099 -0.3118  0.3966 -0.4898
  107DOPC   C3914738   0.529   0.739   3.152 -0.1608 -0.2279 -0.0204
  107DOPC   H9X14739   0.615   0.704   3.094  0.0941 -0.4905  0.5068
  107DOPC  C31014740   0.505   0.694   3.274 -0.2773  0.4168  0.3016
  107DOPC  H10X14741   0.547   0.597   3.303  0.4746 -0.0958 -2.2471
  107DOPC  C31114742   0.408   0.756   3.370  0.3098  0.4296  0.5094
  107DOPC  H11X14743   0.305   0.774   3.335 -0.0176  0.7364  1.5870
  107DOPC  H11Y14744   0.453   0.852   3.403  0.8301  0.4562 -0.2565
  107DOPC  C31214745   0.396   0.667   3.499 -0.0253 -0.4183  0.8839
  107DOPC  H12X14746   0.493   0.619   3.522 -0.0664 -1.9321 -1.6723
  107DOPC  H12Y14747   0.328   0.583   3.475 -0.0821 -0.0013 -0.4767
  107DOPC  C31314748   0.347   0.752   3.613  0.3575 -0.1783  0.0072
  107DOPC  H13X14749   0.379   0.697   3.704 -0.9231  0.3524  0.8109
  107DOPC  H13Y14750   0.383   0.857   3.623  0.4651 -0.0930 -1.1644
  107DOPC  C31414751   0.197   0.773   3.621  0.3357  0.7468 -0.2356
  107DOPC  H14X14752   0.174   0.858   3.554 -3.9160  0.7335  0.9234
  107DOPC  H14Y14753   0.151   0.673   3.602  4.3156 -1.4639  0.6130
  107DOPC  C31514754   0.132   0.820   3.755  0.1399  0.1172  0.1410
  107DOPC  H15X14755   0.149   0.928   3.773 -0.3373  0.4288 -1.1634
  107DOPC  H15Y14756   0.168   0.751   3.834  1.4412 -1.8790 -2.0693
  107DOPC  C31614757  -0.023   0.796   3.742  0.3921 -1.1631 -0.1937
  107DOPC  H16X14758  -0.031   0.694   3.700 -1.1029 -0.4670 -1.6812
  107DOPC  H16Y14759  -0.079   0.803   3.838  0.3984 -1.2480 -0.1841
  107DOPC  C31714760  -0.095   0.890   3.639  0.0025  0.7034  0.0904
  107DOPC  H17X14761  -0.094   0.997   3.670  1.7062  1.0003 -0.8633
  107DOPC  H17Y14762  -0.029   0.889   3.550 -0.6866  1.7814 -0.4555
  107DOPC  C31814763  -0.236   0.866   3.593 -0.4798  0.4592 -0.0022
  107DOPC  H18X14764  -0.277   0.959   3.550 -0.8457  1.3924  2.2284
  107DOPC  H18Y14765  -0.240   0.779   3.524 -1.7418 -0.6704  1.4343
  107DOPC  H18Z14766  -0.295   0.849   3.685 -0.1348 -0.5140  0.0538
  108DOPC     N14767   4.226   7.047   1.477 -0.2585  0.6147 -0.0725
  108DOPC   C1214768   4.188   7.055   1.625  0.0597 -0.2113  0.9442
  108DOPC  H12A14769   4.084   7.030   1.637 -0.1155  0.4923  0.9251
  108DOPC  H12B14770   4.202   7.158   1.652 -1.7755 -0.2066  2.0039
  108DOPC   C1314771   4.369   7.091   1.453 -1.1322 -0.5106 -0.8645
  108DOPC  H13A14772   4.377   7.180   1.514  0.1720 -1.0291 -0.2426
  108DOPC  H13B14773   4.438   7.022   1.500 -0.7495 -0.2462 -1.0342
  108DOPC  H13C14774   4.395   7.101   1.348  0.3348  3.3714 -0.2723
  108DOPC   C1414775   4.146   7.143   1.393 -0.2043 -0.4377 -0.4737
  108DOPC  H14A14776   4.147   7.113   1.289  0.8899  0.2462 -0.6805
  108DOPC  H14B14777   4.045   7.145   1.431  0.2826 -2.4233  1.0779
  108DOPC  H14C14778   4.179   7.246   1.395 -0.8369 -0.2252 -0.7683
  108DOPC   C1514779   4.204   6.903   1.432  0.3585  0.2372 -0.0437
  108DOPC  H15A14780   4.274   6.833   1.475  0.4914 -0.4001 -1.2631
  108DOPC  H15B14781   4.207   6.883   1.326  1.8941 -2.3909  0.4076
  108DOPC  H15C14782   4.110   6.866   1.471 -1.9897  1.0869 -4.2828
  108DOPC   C1114783   4.274   6.983   1.729 -0.4439  0.9370 -0.1187
  108DOPC  H11A14784   4.372   7.031   1.713  0.5685 -0.5711  1.2273
  108DOPC  H11B14785   4.231   7.006   1.829  0.3276  1.0876  0.1857
  108DOPC     P14786   4.224   6.741   1.818  0.1029 -0.0620 -0.0053
  108DOPC   O1314787   4.336   6.661   1.861 -0.2210  0.0835 -0.1059
  108DOPC   O1414788   4.105   6.671   1.768  0.8465  0.0348 -0.4087
  108DOPC   O1214789   4.279   6.842   1.707  0.1263 -0.5069  0.2189
  108DOPC   O1114790   4.179   6.819   1.949  0.4988 -1.1345 -0.1798
  108DOPC    C114791   4.282   6.872   2.045 -0.2100 -0.3050  0.6935
  108DOPC    HA14792   4.248   6.971   2.082 -0.9045  0.2761 -1.4028
  108DOPC    HB14793   4.373   6.904   1.989 -0.8081 -3.7091 -2.6198
  108DOPC    C214794   4.329   6.774   2.165 -0.6836 -0.2479  0.2754
  108DOPC    HS14795   4.380   6.690   2.113 -1.0919  0.1416 -0.7769
  108DOPC   O2114796   4.213   6.731   2.236  0.1337 -0.2400 -0.3093
  108DOPC   C2114797   4.188   6.600   2.231  0.1839 -0.1563 -0.3101
  108DOPC   O2214798   4.254   6.517   2.168  0.3672 -0.7418  0.2672
  108DOPC   C2214799   4.067   6.578   2.334 -0.5737 -0.6213  0.1201
  108DOPC   H2R14800   3.978   6.636   2.302  1.1112  2.1866  0.2072
  108DOPC   H2S14801   4.091   6.620   2.435 -1.4204 -0.7429  0.3762
  108DOPC    C314802   4.428   6.843   2.258  0.0627  0.1814 -0.2216
  108DOPC    HX14803   4.372   6.921   2.313 -1.5847 -1.1829  0.1094
  108DOPC    HY14804   4.510   6.893   2.204  0.1595 -0.3210 -0.5475
  108DOPC   O3114805   4.477   6.745   2.358 -0.1332 -0.1940  1.1478
  108DOPC   C3114806   4.584   6.673   2.330  0.5898  0.1984  0.0294
  108DOPC   O3214807   4.660   6.691   2.237  0.1879 -0.1843  0.4383
  108DOPC   C3214808   4.609   6.564   2.439  0.0841 -0.3026 -0.1925
  108DOPC   H2X14809   4.545   6.570   2.530  2.1881 -0.5000  1.3793
  108DOPC   H2Y14810   4.580   6.464   2.399 -1.9787  0.0802  0.2439
  108DOPC   C2314811   4.036   6.422   2.353 -0.6542 -0.4589  0.5210
  108DOPC   H3R14812   4.136   6.375   2.359 -0.1847  0.5790  0.9392
  108DOPC   H3S14813   3.991   6.384   2.259  0.4425 -1.5412  0.4095
  108DOPC   C2414814   3.952   6.381   2.469  0.2797  0.1293 -0.5881
  108DOPC   H4R14815   3.950   6.270   2.473  0.4694  0.0900 -1.3406
  108DOPC   H4S14816   3.845   6.401   2.447 -0.3082 -0.0268  1.8732
  108DOPC   C2514817   3.974   6.455   2.594 -0.0064 -0.0008 -0.1248
  108DOPC   H5R14818   3.961   6.564   2.579 -0.7529 -0.2816 -1.7147
  108DOPC   H5S14819   4.082   6.443   2.619  0.2552 -1.1729 -1.6673
  108DOPC   C2614820   3.882   6.422   2.711 -0.6450  1.1504 -0.5408
  108DOPC   H6R14821   3.887   6.313   2.731  1.6613  1.5209  1.3045
  108DOPC   H6S14822   3.776   6.442   2.683 -1.6872 -2.6027  0.1290
  108DOPC   C2714823   3.929   6.489   2.838 -0.1327 -0.0087 -0.4543
  108DOPC   H7R14824   3.931   6.596   2.808  1.0574 -0.3663 -1.7702
  108DOPC   H7S14825   4.035   6.460   2.856  0.0138  0.9301  0.2316
  108DOPC   C2814826   3.833   6.455   2.956  0.7536 -0.1295  0.2835
  108DOPC   H8R14827   3.812   6.346   2.966  0.5283  0.0204  1.6458
  108DOPC   H8S14828   3.736   6.500   2.926  0.5678 -1.2198 -0.8698
  108DOPC   C2914829   3.881   6.524   3.077 -0.0740 -0.3710 -0.1050
  108DOPC   H9R14830   3.979   6.487   3.110 -0.6695 -0.1073  2.1306
  108DOPC  C21014831   3.824   6.618   3.154  0.1283  0.3126  0.2642
  108DOPC  H10R14832   3.877   6.666   3.238 -2.6386  0.9997  1.7445
  108DOPC  C21114833   3.690   6.680   3.136 -0.6782  0.0545 -0.3542
  108DOPC  H11R14834   3.609   6.604   3.135 -1.2335  0.6232  0.3647
  108DOPC  H11S14835   3.690   6.729   3.036  1.3937  0.6193 -0.1304
  108DOPC  C21214836   3.651   6.794   3.230 -0.6104 -0.2517  0.2493
  108DOPC  H12R14837   3.655   6.765   3.337  1.5189  2.0242  0.8646
  108DOPC  H12S14838   3.549   6.833   3.210 -0.7393  0.3820  2.0036
  108DOPC  C21314839   3.748   6.916   3.206  0.1587  0.0380 -0.1265
  108DOPC  H13R14840   3.729   6.938   3.099 -0.2350 -1.2697 -0.3454
  108DOPC  H13S14841   3.855   6.887   3.217  1.1563  2.2191 -2.9127
  108DOPC  C21414842   3.731   7.028   3.304  0.2391  0.3047 -0.0819
  108DOPC  H14R14843   3.745   6.985   3.406 -0.7576 -2.8659 -1.1515
  108DOPC  H14S14844   3.626   7.065   3.308  0.2263  0.2655 -0.0503
  108DOPC  C21514845   3.827   7.154   3.275  1.1860  0.2377 -0.0699
  108DOPC  H15R14846   3.809   7.183   3.169 -2.8251  3.2399  1.1556
  108DOPC  H15S14847   3.927   7.118   3.307  0.8389  0.7310  1.6795
  108DOPC  C21614848   3.774   7.280   3.359 -0.0716 -0.3392  0.5061
  108DOPC  H16R14849   3.675   7.304   3.315  0.2137  1.0428  0.5685
  108DOPC  H16S14850   3.831   7.365   3.318  2.9097 -2.3541  0.1919
  108DOPC  C21714851   3.780   7.267   3.510 -0.0034  0.5979  0.4023
  108DOPC  H17R14852   3.886   7.257   3.543 -0.6525  0.1890  2.4721
  108DOPC  H17S14853   3.718   7.179   3.534  0.2052 -0.3299 -2.1301
  108DOPC  C21814854   3.723   7.396   3.571 -0.1897 -0.5878  0.0077
  108DOPC  H18R14855   3.754   7.400   3.678  0.0227 -0.8031 -0.0450
  108DOPC  H18S14856   3.612   7.389   3.565 -0.2946  1.1407 -0.5904
  108DOPC  H18T14857   3.766   7.480   3.514  0.2192  0.7969  2.2413
  108DOPC   C3314858   4.756   6.568   2.491 -0.3311  0.3441 -0.3622
  108DOPC   H3X14859   4.784   6.673   2.514  0.2620  0.2570 -0.6641
  108DOPC   H3Y14860   4.824   6.524   2.414 -2.0470  0.7800 -2.2049
  108DOPC   C3414861   4.771   6.487   2.622  0.2005 -0.5466  0.0538
  108DOPC   H4X14862   4.880   6.467   2.633  0.5526  1.1910  0.0564
  108DOPC   H4Y14863   4.711   6.394   2.621  0.7812 -1.1310  3.9574
  108DOPC   C3514864   4.738   6.551   2.761  0.6947 -0.3277  0.6382
  108DOPC   H5X14865   4.629   6.564   2.779  0.2053 -1.3521 -1.3789
  108DOPC   H5Y14866   4.788   6.650   2.771 -1.5290  0.8309  0.7931
  108DOPC   C3614867   4.798   6.479   2.885 -0.4099  0.4652  0.3058
  108DOPC   H6X14868   4.908   6.480   2.900 -0.3181 -0.1664 -0.3003
  108DOPC   H6Y14869   4.758   6.539   2.970  2.0827 -0.9874  2.6523
  108DOPC   C3714870   4.753   6.330   2.902  1.3168 -0.0947  0.3650
  108DOPC   H7X14871   4.662   6.323   2.839  1.9541 -0.0704 -0.5926
  108DOPC   H7Y14872   4.833   6.267   2.856  0.7248 -2.8316  2.8497
  108DOPC   C3814873   4.722   6.297   3.045 -0.7022  0.0326  0.1151
  108DOPC   H8X14874   4.644   6.366   3.085 -1.4704 -0.3553 -0.6828
  108DOPC   H8Y14875   4.817   6.320   3.097  0.2952  2.0080 -2.3871
  108DOPC   C3914876   4.680   6.146   3.061 -0.3820 -0.6722  0.4340
  108DOPC   H9X14877   4.628   6.103   2.974 -2.1105 -0.3703  1.2823
  108DOPC  C31014878   4.743   6.066   3.149 -0.1214  0.1031  0.5318
  108DOPC  H10X14879   4.713   5.962   3.167 -1.8302  0.2289 -1.2324
  108DOPC  C31114880   4.844   6.101   3.248 -1.1024 -1.1108 -0.7511
  108DOPC  H11X14881   4.846   6.209   3.275 -1.2938 -1.4427  0.7214
  108DOPC  H11Y14882   4.945   6.079   3.208 -0.2300  1.6108 -0.2643
  108DOPC  C31214883   4.838   6.015   3.377  0.1534  0.9178 -0.6382
  108DOPC  H12X14884   4.920   6.039   3.447 -1.3006  0.5616  1.2528
  108DOPC  H12Y14885   4.841   5.906   3.353 -1.1250  0.2949  1.7823
  108DOPC  C31314886   4.701   6.026   3.451 -0.2643 -0.4403  0.0582
  108DOPC  H13X14887   4.690   6.133   3.476  2.5277  0.3783 -1.7529
  108DOPC  H13Y14888   4.622   5.990   3.382  1.5899 -0.9010 -1.9230
  108DOPC  C31414889   4.701   5.949   3.581 -0.1343  0.3717  0.4173
  108DOPC  H14X14890   4.702   5.841   3.556  1.0593  0.8312 -1.8479
  108DOPC  H14Y14891   4.794   5.968   3.639  0.2241  0.5797 -0.2132
  108DOPC  C31514892   4.577   5.982   3.652  0.3881 -0.2413  0.3290
  108DOPC  H15X14893   4.481   5.945   3.611  0.4103 -1.3986  1.2598
  108DOPC  H15Y14894   4.560   6.092   3.649 -0.9161 -0.4288  0.2597
  108DOPC  C31614895   4.585   5.940   3.794 -0.2211 -1.0970  0.0577
  108DOPC  H16X14896   4.580   5.829   3.801  0.6454 -1.4363 -3.1772
  108DOPC  H16Y14897   4.674   5.972   3.852 -0.0315 -2.0809  0.3349
  108DOPC  C31714898   4.466   6.004   3.866 -0.0382 -0.7423 -0.1563
  108DOPC  H17X14899   4.473   6.114   3.852 -0.4409 -0.8547 -1.3727
  108DOPC  H17Y14900   4.376   5.983   3.804  1.3012  1.7047 -3.2410
  108DOPC  C31814901   4.434   5.945   4.004 -0.2646  0.2941 -0.2981
  108DOPC  H18X14902   4.330   5.962   4.040  0.0758  0.4385  0.6400
  108DOPC  H18Y14903   4.457   5.836   4.007  2.9510  0.8672  4.0193
  108DOPC  H18Z14904   4.499   5.981   4.086  0.2159 -2.0807  0.4368
  109DOPC     N14905   2.206   6.005   1.419 -0.0664 -0.0319 -0.1101
  109DOPC   C1214906   2.244   5.947   1.552  0.4715  0.3266 -0.1796
  109DOPC  H12A14907   2.161   5.953   1.620 -0.3614 -0.8176 -1.0581
  109DOPC  H12B14908   2.322   6.001   1.603  1.6717 -0.2769 -1.3050
  109DOPC   C1314909   2.103   5.926   1.353 -0.4237 -0.2585  1.1904
  109DOPC  H13A14910   2.071   5.981   1.265 -0.6673 -1.4743  0.4891
  109DOPC  H13B14911   2.122   5.822   1.330  0.4274 -0.2914  2.0109
  109DOPC  H13C14912   2.019   5.913   1.420 -1.4075  1.2448  0.3210
  109DOPC   C1414913   2.326   6.014   1.329 -0.7547 -0.0838  0.7795
  109DOPC  H14A14914   2.288   6.044   1.232  0.9886  1.2160  0.4601
  109DOPC  H14B14915   2.398   6.085   1.368  2.0006 -0.8221 -2.5408
  109DOPC  H14C14916   2.358   5.913   1.310 -0.7302  0.2431 -1.0319
  109DOPC   C1514917   2.144   6.134   1.449  0.4927 -0.6304  0.3476
  109DOPC  H15A14918   2.139   6.182   1.352  0.3372  0.9687  1.1045
  109DOPC  H15B14919   2.192   6.204   1.516 -0.2776 -0.0371  0.2836
  109DOPC  H15C14920   2.045   6.117   1.487 -0.2143 -0.9926 -1.5666
  109DOPC   C1114921   2.297   5.805   1.557 -0.1355  0.3511  0.0036
  109DOPC  H11A14922   2.286   5.743   1.648  1.2509  0.3160  0.1759
  109DOPC  H11B14923   2.235   5.748   1.485 -2.5076 -0.1587  2.3269
  109DOPC     P14924   2.547   5.854   1.596 -0.0913  0.0136 -0.2536
  109DOPC   O1314925   2.585   5.986   1.545 -0.2294 -0.5759  0.0660
  109DOPC   O1414926   2.656   5.749   1.593  0.3508 -0.3994  0.0055
  109DOPC   O1214927   2.430   5.791   1.516  0.3037 -0.4001 -0.7087
  109DOPC   O1114928   2.500   5.862   1.744 -0.4339 -0.5209  0.3119
  109DOPC    C114929   2.500   5.740   1.820 -0.5912 -0.0824 -0.3016
  109DOPC    HA14930   2.608   5.711   1.825 -0.3940  0.4894 -1.1325
  109DOPC    HB14931   2.444   5.656   1.775 -1.8703  1.1372 -1.0298
  109DOPC    C214932   2.443   5.740   1.968 -0.1397 -0.3150  0.4837
  109DOPC    HS14933   2.335   5.765   1.956 -0.8082 -1.9084  2.6239
  109DOPC   O2114934   2.518   5.824   2.062  0.9358 -0.0962 -0.1441
  109DOPC   C2114935   2.456   5.934   2.102  0.3915  0.1666  0.4587
  109DOPC   O2214936   2.339   5.968   2.071  0.1230 -0.0775  0.0589
  109DOPC   C2214937   2.549   6.027   2.163  0.4654 -0.1448  0.0568
  109DOPC   H2R14938   2.497   6.126   2.166 -2.5168 -1.6353  1.5762
  109DOPC   H2S14939   2.637   6.042   2.098  1.6804  1.6702  1.9686
  109DOPC    C314940   2.451   5.600   2.033  0.0261  0.5061  0.7400
  109DOPC    HX14941   2.560   5.576   2.040  0.2493  0.5154 -1.7307
  109DOPC    HY14942   2.418   5.511   1.975  0.5762  0.5975  0.2721
  109DOPC   O3114943   2.392   5.583   2.162  0.5157 -0.8757  0.3326
  109DOPC   C3114944   2.257   5.599   2.161 -0.3988  0.1900 -0.4167
  109DOPC   O3214945   2.188   5.623   2.067 -0.1847 -0.3243 -0.0860
  109DOPC   C3214946   2.205   5.582   2.304 -0.1152 -0.3997 -0.1340
  109DOPC   H2X14947   2.141   5.491   2.310 -0.6269 -0.1142 -1.0685
  109DOPC   H2Y14948   2.292   5.564   2.370 -0.3025  0.7690  0.4434
  109DOPC   C2314949   2.598   5.987   2.304  0.2049  0.3183  0.9783
  109DOPC   H3R14950   2.692   6.044   2.320  0.5175  0.6137 -1.4611
  109DOPC   H3S14951   2.638   5.884   2.316  2.7183  1.3041  1.6522
  109DOPC   C2414952   2.490   6.012   2.412 -0.7301 -0.0978 -0.4197
  109DOPC   H4R14953   2.401   5.953   2.383 -0.7845 -0.7219  0.9452
  109DOPC   H4S14954   2.472   6.122   2.416 -3.2625 -0.4680  2.6448
  109DOPC   C2514955   2.536   5.971   2.547  0.3651 -0.2773 -0.1064
  109DOPC   H5R14956   2.644   5.995   2.561  0.8136 -0.5429 -2.6942
  109DOPC   H5S14957   2.513   5.864   2.567 -1.7834  0.0863 -0.3981
  109DOPC   C2614958   2.468   6.059   2.660  0.5273 -0.3834 -0.0229
  109DOPC   H6R14959   2.360   6.053   2.631  0.8943 -0.8766 -1.3609
  109DOPC   H6S14960   2.497   6.165   2.650  1.3025 -0.2737  2.6818
  109DOPC   C2714961   2.474   6.008   2.799  0.1585 -1.0234 -0.1909
  109DOPC   H7R14962   2.577   6.012   2.840 -0.5326 -1.5839  1.6687
  109DOPC   H7S14963   2.434   5.904   2.800 -1.0344 -0.5677  0.1916
  109DOPC   C2814964   2.383   6.097   2.895  0.3469  0.0807 -0.1569
  109DOPC   H8R14965   2.285   6.097   2.844  0.5118  0.4641 -0.4795
  109DOPC   H8S14966   2.416   6.202   2.887  1.2917 -0.0435  1.6215
  109DOPC   C2914967   2.388   6.059   3.042  0.4081 -0.3128  0.2054
  109DOPC   H9R14968   2.477   6.102   3.090 -0.1400  0.3736  0.6165
  109DOPC  C21014969   2.314   5.979   3.117  0.5770  0.3442  0.0872
  109DOPC  H10R14970   2.342   5.968   3.223 -0.2373  1.9990  0.5082
  109DOPC  C21114971   2.198   5.891   3.065 -0.1141 -0.2775  0.1190
  109DOPC  H11R14972   2.238   5.792   3.036  0.6504  0.0704 -0.0591
  109DOPC  H11S14973   2.156   5.933   2.971 -2.8017 -0.3105  1.2263
  109DOPC  C21214974   2.093   5.861   3.178 -0.2715 -0.1957  0.2518
  109DOPC  H12R14975   2.023   5.784   3.139  0.6975 -0.1871 -1.6440
  109DOPC  H12S14976   2.035   5.955   3.191 -0.2560 -0.2204  0.4946
  109DOPC  C21314977   2.152   5.819   3.314 -0.4918 -0.0019 -0.0572
  109DOPC  H13R14978   2.229   5.885   3.358 -1.9206  1.3412  0.5432
  109DOPC  H13S14979   2.185   5.715   3.293 -0.5260 -0.0777  0.2641
  109DOPC  C21414980   2.052   5.800   3.429 -0.5798  0.0766 -0.4999
  109DOPC  H14R14981   1.970   5.738   3.386 -2.2024  1.4393  0.5047
  109DOPC  H14S14982   1.990   5.885   3.465  0.4878 -0.3824  2.7430
  109DOPC  C21514983   2.107   5.731   3.554 -0.0460  0.5312 -0.3683
  109DOPC  H15R14984   2.193   5.789   3.593  0.0761  0.0676  0.0701
  109DOPC  H15S14985   2.139   5.630   3.520 -0.4324  0.1822  0.2884
  109DOPC  C21614986   2.007   5.709   3.668 -0.1542  0.2990 -0.9754
  109DOPC  H16R14987   2.061   5.644   3.741 -1.1129  0.4127 -0.1456
  109DOPC  H16S14988   1.918   5.647   3.643 -0.1103 -1.1922  2.1279
  109DOPC  C21714989   1.960   5.842   3.723  0.2523 -0.2245 -0.3208
  109DOPC  H17R14990   1.904   5.903   3.648 -1.9722 -0.5502  0.9888
  109DOPC  H17S14991   2.050   5.901   3.747 -0.7626  1.5921 -0.7881
  109DOPC  C21814992   1.855   5.840   3.831 -0.1214  0.0206  0.2059
  109DOPC  H18R14993   1.900   5.804   3.926 -1.2955  0.7138  1.0434
  109DOPC  H18S14994   1.774   5.771   3.802 -1.2379  1.0006  0.9086
  109DOPC  H18T14995   1.812   5.940   3.855 -0.8537 -0.3392  0.4104
  109DOPC   C3314996   2.121   5.706   2.338 -0.0469  0.1117 -0.0222
  109DOPC   H3X14997   2.025   5.695   2.283  0.0355  0.9793 -0.3471
  109DOPC   H3Y14998   2.168   5.803   2.313 -0.4371  0.6402  1.2019
  109DOPC   C3414999   2.082   5.706   2.483 -1.3367  0.5956  0.7717
  109DOPC   H4X15000   2.173   5.676   2.538 -0.0755  0.2356 -1.4005
  109DOPC   H4Y15001   2.015   5.619   2.503  1.4599 -1.8817  0.0462
  109DOPC   C3515002   2.021   5.834   2.530  0.0955 -0.2674  0.7331
  109DOPC   H5X15003   1.943   5.875   2.461  0.7780 -0.9660 -0.4983
  109DOPC   H5Y15004   2.098   5.915   2.527  0.0605 -0.2007  1.5697
  109DOPC   C3615005   1.972   5.826   2.670 -0.2864 -0.5377 -0.6638
  109DOPC   H6X15006   1.886   5.755   2.671  0.7095 -1.7982  0.5784
  109DOPC   H6Y15007   2.058   5.783   2.726 -1.3607 -1.5333  0.3012
  109DOPC   C3715008   1.927   5.962   2.745  0.3174 -0.7987  0.1624
  109DOPC   H7X15009   2.007   6.039   2.735  1.9329 -2.4204  0.2944
  109DOPC   H7Y15010   1.845   6.009   2.686  1.4000 -0.2223 -0.9390
  109DOPC   C3815011   1.876   5.921   2.885  0.3616 -0.5464  0.2716
  109DOPC   H8X15012   1.882   6.012   2.948 -2.3194  1.0033 -1.4965
  109DOPC   H8Y15013   1.939   5.837   2.921 -0.6741 -2.7737 -2.6748
  109DOPC   C3915014   1.737   5.868   2.891 -0.2345 -0.4768  1.0885
  109DOPC   H9X15015   1.690   5.835   2.798  1.7627 -0.5277  0.0555
  109DOPC  C31015016   1.662   5.867   3.005  0.1378 -0.5333  1.2049
  109DOPC  H10X15017   1.558   5.833   3.006 -0.0404  0.0051  1.6768
  109DOPC  C31115018   1.707   5.904   3.139  0.5774  0.3147  0.5709
  109DOPC  H11X15019   1.699   6.014   3.156 -2.4280  0.0843  1.2120
  109DOPC  H11Y15020   1.815   5.878   3.146  0.4535 -1.5222 -2.6569
  109DOPC  C31215021   1.633   5.823   3.250  0.4152 -0.1431  0.6269
  109DOPC  H12X15022   1.680   5.722   3.249 -1.1582 -0.9031 -0.4604
  109DOPC  H12Y15023   1.529   5.794   3.223  1.1432 -0.7038 -1.8412
  109DOPC  C31315024   1.644   5.892   3.384 -0.0714 -0.1637 -0.0614
  109DOPC  H13X15025   1.744   5.881   3.430  0.8229 -1.9846 -2.2410
  109DOPC  H13Y15026   1.622   5.999   3.367 -2.0890 -0.5425 -0.0652
  109DOPC  C31415027   1.546   5.836   3.492  0.4098  0.0912 -0.4153
  109DOPC  H14X15028   1.559   5.928   3.554  1.8989 -0.7874  0.6439
  109DOPC  H14Y15029   1.445   5.836   3.446  0.6583 -2.5340 -1.1427
  109DOPC  C31515030   1.573   5.707   3.568 -0.3135  0.0289  0.0238
  109DOPC  H15X15031   1.676   5.714   3.608 -0.9613  0.1748  1.8184
  109DOPC  H15Y15032   1.558   5.624   3.496  0.2668 -0.1495  0.1082
  109DOPC  C31615033   1.475   5.667   3.684 -0.8979 -0.5474  0.1201
  109DOPC  H16X15034   1.454   5.749   3.756 -1.0050  0.1275 -0.6611
  109DOPC  H16Y15035   1.376   5.641   3.641 -0.2940 -1.8241 -0.5399
  109DOPC  C31715036   1.529   5.543   3.756  0.1262  0.3736 -0.2908
  109DOPC  H17X15037   1.637   5.545   3.781  0.2076 -0.7761 -0.5095
  109DOPC  H17Y15038   1.480   5.547   3.856  0.7448 -0.6721  0.0753
  109DOPC  C31815039   1.494   5.416   3.688  0.2997  0.0556 -0.5274
  109DOPC  H18X15040   1.529   5.326   3.743  0.6053  1.4680  1.7389
  109DOPC  H18Y15041   1.383   5.413   3.686  0.2846  0.4281 -0.3838
  109DOPC  H18Z15042   1.537   5.397   3.587 -1.8004 -0.5153 -1.3678
  110DOPC     N15043   2.616   0.027   1.439  0.4419 -0.5149  0.5449
  110DOPC   C1215044   2.616  -0.035   1.572 -1.2016 -0.1487 -0.4298
  110DOPC  H12A15045   2.597  -0.140   1.582  0.3843 -0.5075 -0.9566
  110DOPC  H12B15046   2.527  -0.005   1.625 -1.0202  2.3173 -1.3633
  110DOPC   C1315047   2.675  -0.072   1.341  0.4286 -0.2985  0.0721
  110DOPC  H13A15048   2.704  -0.021   1.251 -4.1233 -0.6248 -1.8381
  110DOPC  H13B15049   2.760  -0.122   1.387  1.6859  1.5122 -0.1950
  110DOPC  H13C15050   2.611  -0.152   1.307  3.5359 -2.5269 -1.0133
  110DOPC   C1415051   2.682   0.162   1.436 -0.5889 -0.0180  0.4147
  110DOPC  H14A15052   2.714   0.195   1.338 -1.0885  1.2651  0.6567
  110DOPC  H14B15053   2.620   0.244   1.470  0.4826  2.0663 -2.3391
  110DOPC  H14C15054   2.770   0.150   1.497 -1.3336  0.6827  1.6714
  110DOPC   C1515055   2.476   0.036   1.381  0.1377  0.6645 -0.1169
  110DOPC  H15A15056   2.428  -0.060   1.391  0.0856  0.6910 -0.1087
  110DOPC  H15B15057   2.475   0.067   1.277 -0.1946  0.2866 -0.2267
  110DOPC  H15C15058   2.415   0.105   1.438  0.4171 -0.5183  1.6797
  110DOPC   C1115059   2.726   0.006   1.676  0.0347  0.5343 -0.4025
  110DOPC  H11A15060   2.706   0.113   1.698  0.0685  0.2762  0.9238
  110DOPC  H11B15061   2.696  -0.039   1.773 -1.1317  0.0234 -0.9744
  110DOPC     P15062   2.980   0.033   1.715  0.0940 -0.0491 -0.3200
  110DOPC   O1315063   3.056   0.133   1.635  0.5368 -0.2542  0.3165
  110DOPC   O1415064   3.058  -0.087   1.751 -0.1826 -0.0448  0.3744
  110DOPC   O1215065   2.858  -0.012   1.635  0.5197  0.0153 -0.4595
  110DOPC   O1115066   2.923   0.095   1.850  0.6654 -0.1654 -0.8076
  110DOPC    C115067   2.932   0.226   1.880  0.1379  0.0502 -0.2337
  110DOPC    HA15068   2.865   0.284   1.813  0.2297  1.0581  0.5237
  110DOPC    HB15069   3.034   0.266   1.860  0.1932  0.1747  0.2964
  110DOPC    C215070   2.881   0.253   2.024  0.5193  0.2734  0.6978
  110DOPC    HS15071   2.883   0.362   2.040  0.5195  0.6192 -1.3267
  110DOPC   O2115072   2.972   0.189   2.122 -0.2090  0.9825  0.1608
  110DOPC   C2115073   3.097   0.244   2.137 -0.6437  0.2439  0.8405
  110DOPC   O2215074   3.121   0.348   2.080 -0.3066 -0.8168 -0.2673
  110DOPC   C2215075   3.189   0.143   2.198  0.0186 -0.0618 -0.4638
  110DOPC   H2R15076   3.191   0.052   2.134 -0.2186 -1.4538  1.3948
  110DOPC   H2S15077   3.139   0.112   2.293 -4.0136  1.7371 -1.7860
  110DOPC    C315078   2.737   0.215   2.042 -0.1299 -0.1504 -0.0124
  110DOPC    HX15079   2.718   0.110   2.010 -2.5246  0.1859  0.1162
  110DOPC    HY15080   2.674   0.283   1.980  0.4034  0.3262 -0.0356
  110DOPC   O3115081   2.702   0.236   2.193  0.1040 -0.2618  0.5146
  110DOPC   C3115082   2.573   0.228   2.219 -0.0645  0.1489 -0.6090
  110DOPC   O3215083   2.486   0.189   2.141  0.0191  0.5314 -0.2460
  110DOPC   C3215084   2.547   0.274   2.363 -0.0951 -0.9302  0.0583
  110DOPC   H2X15085   2.628   0.232   2.426 -0.8749  1.0449  2.5162
  110DOPC   H2Y15086   2.559   0.383   2.380 -0.0859 -0.6089 -1.7610
  110DOPC   C2315087   3.329   0.204   2.224  0.2173  0.1328 -0.4230
  110DOPC   H3R15088   3.358   0.281   2.149 -0.9434  0.3719 -0.6543
  110DOPC   H3S15089   3.397   0.117   2.220 -0.4332 -0.3886 -0.4227
  110DOPC   C2415090   3.349   0.264   2.368  0.0067 -0.5007 -0.1568
  110DOPC   H4R15091   3.459   0.277   2.380  0.2135 -1.4312 -0.9096
  110DOPC   H4S15092   3.310   0.204   2.453 -3.5988 -1.8707 -2.5490
  110DOPC   C2515093   3.285   0.405   2.376 -0.1348  0.6142 -0.5711
  110DOPC   H5R15094   3.184   0.408   2.329 -0.0499  1.9208 -0.6966
  110DOPC   H5S15095   3.338   0.482   2.316  0.0468  1.2196  0.3381
  110DOPC   C2615096   3.249   0.443   2.518  0.2627  0.7351 -0.0068
  110DOPC   H6R15097   3.242   0.552   2.538 -1.9498  0.6670 -0.1866
  110DOPC   H6S15098   3.328   0.402   2.584  0.8002  0.1924 -0.9657
  110DOPC   C2715099   3.113   0.373   2.567 -0.3130 -0.6925 -0.7174
  110DOPC   H7R15100   3.099   0.269   2.532 -0.9168 -0.5135 -1.0231
  110DOPC   H7S15101   3.028   0.428   2.521 -0.0509 -0.2020 -0.6321
  110DOPC   C2815102   3.082   0.376   2.724  0.2257 -0.0353  0.1952
  110DOPC   H8R15103   2.974   0.359   2.745  0.1067  2.1836  1.7535
  110DOPC   H8S15104   3.094   0.481   2.757 -1.7383  0.9181 -1.8650
  110DOPC   C2915105   3.170   0.292   2.811 -0.2773  0.1364  0.2892
  110DOPC   H9R15106   3.186   0.187   2.783  0.9530  0.6062 -0.9207
  110DOPC  C21015107   3.216   0.333   2.933 -0.3144  0.2607  0.0248
  110DOPC  H10R15108   3.294   0.273   2.983  1.1470  0.2745 -2.1099
  110DOPC  C21115109   3.195   0.467   2.993  0.8394  0.1659  0.5797
  110DOPC  H11R15110   3.097   0.505   2.956  1.2592 -0.4394 -1.2430
  110DOPC  H11S15111   3.269   0.539   2.952  1.4602  0.2617  1.8399
  110DOPC  C21215112   3.192   0.471   3.144 -0.1056 -0.0332 -0.7478
  110DOPC  H12R15113   3.094   0.430   3.178  0.3276  0.3950  1.1298
  110DOPC  H12S15114   3.183   0.574   3.184 -1.0198 -0.8907  1.4079
  110DOPC  C21315115   3.311   0.402   3.217 -0.4319 -0.0987  0.4042
  110DOPC  H13R15116   3.408   0.452   3.194  0.1543 -0.7396  1.3660
  110DOPC  H13S15117   3.314   0.297   3.183 -0.7169  0.2711 -0.8140
  110DOPC  C21415118   3.282   0.381   3.370  0.1667 -0.0624  0.0718
  110DOPC  H14R15119   3.195   0.312   3.375 -1.5621  2.1095  2.5838
  110DOPC  H14S15120   3.248   0.481   3.404 -0.3043 -0.2236  0.0889
  110DOPC  C21515121   3.398   0.334   3.452  0.2438  0.8771 -0.2641
  110DOPC  H15R15122   3.470   0.419   3.449  0.9356  0.2636 -1.5936
  110DOPC  H15S15123   3.437   0.240   3.408  0.2056  0.0757  1.3405
  110DOPC  C21615124   3.361   0.303   3.597 -0.4426 -0.0153 -0.2661
  110DOPC  H16R15125   3.290   0.218   3.604 -2.4087  1.7087  2.2194
  110DOPC  H16S15126   3.315   0.394   3.640 -2.1251 -0.3958 -1.1727
  110DOPC  C21715127   3.489   0.282   3.671  0.3911 -0.1839  0.1993
  110DOPC  H17R15128   3.550   0.375   3.664 -0.3777  0.4294  1.2104
  110DOPC  H17S15129   3.548   0.202   3.624  3.0767  0.4628  2.2426
  110DOPC  C21815130   3.463   0.257   3.825 -0.7497 -0.1393 -0.0707
  110DOPC  H18R15131   3.413   0.159   3.839 -1.1470 -0.3767 -2.6565
  110DOPC  H18S15132   3.402   0.336   3.874 -0.9776 -1.4500  1.8410
  110DOPC  H18T15133   3.564   0.239   3.869 -1.4787 -1.7304  1.0477
  110DOPC   C3315134   2.416   0.230   2.429  0.2661 -0.4228 -0.4474
  110DOPC   H3X15135   2.367   0.151   2.369  0.0656 -0.0043 -0.8302
  110DOPC   H3Y15136   2.348   0.317   2.424  2.2774  1.2474 -0.1805
  110DOPC   C3415137   2.428   0.173   2.572  0.7839 -0.4392  0.1887
  110DOPC   H4X15138   2.490   0.231   2.643 -2.1356  4.4014 -0.7579
  110DOPC   H4Y15139   2.481   0.075   2.568  0.6998 -0.4697 -0.2847
  110DOPC   C3515140   2.291   0.140   2.636 -0.1743 -0.0071  0.2963
  110DOPC   H5X15141   2.237   0.055   2.588 -1.7700  0.8735  0.4790
  110DOPC   H5Y15142   2.222   0.225   2.619 -0.4768 -0.3099  0.0101
  110DOPC   C3615143   2.292   0.122   2.786 -0.1330  0.4968 -0.0903
  110DOPC   H6X15144   2.334   0.214   2.831  0.0666  0.7948 -0.8643
  110DOPC   H6Y15145   2.187   0.118   2.823 -0.0137  2.0234  0.4640
  110DOPC   C3715146   2.372  -0.011   2.832  0.1783 -0.7945 -0.0183
  110DOPC   H7X15147   2.313  -0.098   2.796 -0.1963  0.0131 -1.4423
  110DOPC   H7Y15148   2.467  -0.021   2.775 -0.7169  0.0554 -1.7540
  110DOPC   C3815149   2.393  -0.009   2.982  0.4919 -0.0355 -0.1153
  110DOPC   H8X15150   2.293  -0.010   3.030  0.3468 -3.0535 -0.2428
  110DOPC   H8Y15151   2.445   0.087   3.000  3.7712 -0.8590 -3.7666
  110DOPC   C3915152   2.492  -0.118   3.026 -0.1281 -0.6176 -0.6307
  110DOPC   H9X15153   2.597  -0.113   2.993  0.1586 -3.6203 -0.4517
  110DOPC  C31015154   2.466  -0.218   3.106  0.1065 -0.3505 -1.2934
  110DOPC  H10X15155   2.543  -0.293   3.128  0.6983  0.5149 -0.3432
  110DOPC  C31115156   2.340  -0.252   3.177  0.4974  0.9017  0.0080
  110DOPC  H11X15157   2.329  -0.362   3.174 -0.1314  0.9694 -0.4458
  110DOPC  H11Y15158   2.252  -0.221   3.115  1.0416 -1.6539 -2.2626
  110DOPC  C31215159   2.337  -0.203   3.319  0.2281 -0.1842  0.5534
  110DOPC  H12X15160   2.331  -0.092   3.315 -1.5203 -0.2416  0.6187
  110DOPC  H12Y15161   2.421  -0.249   3.376  0.7863  2.5375  2.0721
  110DOPC  C31315162   2.215  -0.252   3.391 -0.2221  0.0665  0.0242
  110DOPC  H13X15163   2.120  -0.226   3.340  1.3867  1.3014 -2.5509
  110DOPC  H13Y15164   2.213  -0.363   3.406 -1.2330  0.0926  0.1632
  110DOPC  C31415165   2.212  -0.194   3.535  0.7020  0.6683  0.3529
  110DOPC  H14X15166   2.312  -0.207   3.581  1.2348  3.3059  0.0921
  110DOPC  H14Y15167   2.208  -0.083   3.532  0.8808  0.8765  3.8307
  110DOPC  C31515168   2.111  -0.262   3.632  0.2075  0.7096  0.0518
  110DOPC  H15X15169   2.137  -0.369   3.648  2.4629  1.4106  1.4934
  110DOPC  H15Y15170   2.012  -0.256   3.582 -0.1118  1.8591  0.7806
  110DOPC  C31615171   2.112  -0.210   3.776 -0.0432  0.1784 -0.3935
  110DOPC  H16X15172   2.065  -0.285   3.842  0.4779  0.8201  0.7284
  110DOPC  H16Y15173   2.219  -0.196   3.802  0.0652  1.4607 -1.4110
  110DOPC  C31715174   2.054  -0.075   3.806  0.0069  0.4278  0.0147
  110DOPC  H17X15175   2.098   0.006   3.744 -1.8435  0.3585 -1.4850
  110DOPC  H17Y15176   1.949  -0.085   3.770 -0.5862 -0.9446  1.9673
  110DOPC  C31815177   2.050  -0.036   3.957 -0.1491  0.6066 -0.3179
  110DOPC  H18X15178   2.154  -0.011   3.986 -0.3001  2.2930 -1.1498
  110DOPC  H18Y15179   1.996   0.060   3.963 -0.4625  0.4444 -0.5258
  110DOPC  H18Z15180   2.003  -0.121   4.011 -0.7107  1.2263  0.1859
  111DOPC     N15181   6.363   4.115   1.629  0.0685 -0.3161 -0.7511
  111DOPC   C1215182   6.329   4.140   1.777  0.0287  0.6917  0.1045
  111DOPC  H12A15183   6.224   4.165   1.782 -0.3212 -0.5484 -0.6082
  111DOPC  H12B15184   6.385   4.230   1.799  0.6924  0.8204 -1.8651
  111DOPC   C1315185   6.342   4.243   1.553  0.1381  0.0886  0.8176
  111DOPC  H13A15186   6.242   4.282   1.563  0.2333  0.2514  1.1380
  111DOPC  H13B15187   6.408   4.322   1.586 -2.7084  3.1908 -0.3329
  111DOPC  H13C15188   6.371   4.238   1.449  1.4832  2.1224  1.0389
  111DOPC   C1415189   6.283   4.002   1.575 -0.3636  0.4668 -0.1538
  111DOPC  H14A15190   6.184   4.033   1.545 -0.2955 -0.3224 -1.2724
  111DOPC  H14B15191   6.318   3.957   1.483 -2.1392 -2.8061  0.6032
  111DOPC  H14C15192   6.281   3.921   1.647  1.4201 -1.1057 -1.7633
  111DOPC   C1515193   6.515   4.082   1.619 -0.2771  0.0758  0.3660
  111DOPC  H15A15194   6.546   4.082   1.515 -0.4900  0.8825  0.2934
  111DOPC  H15B15195   6.530   3.982   1.657 -0.6532  0.1252  0.6416
  111DOPC  H15C15196   6.579   4.140   1.684 -0.3835  0.0739  0.4718
  111DOPC   C1115197   6.370   4.035   1.884 -0.2788  0.2784  0.2629
  111DOPC  H11A15198   6.477   4.011   1.872 -0.5426 -0.4999 -0.6026
  111DOPC  H11B15199   6.363   4.092   1.980  1.8867  1.4679 -0.2287
  111DOPC     P15200   6.144   3.916   1.930  0.0177 -0.0405 -0.2866
  111DOPC   O1315201   6.093   3.785   1.903 -0.4084  0.2344 -0.5366
  111DOPC   O1415202   6.068   4.033   1.876  0.2804  0.4975  0.2800
  111DOPC   O1215203   6.290   3.915   1.873 -1.0038 -0.0162 -0.2448
  111DOPC   O1115204   6.159   3.935   2.090  0.4265  0.5974  0.1604
  111DOPC    C115205   6.192   3.814   2.158 -0.0779  0.5153 -0.0499
  111DOPC    HA15206   6.246   3.735   2.102 -0.7477  0.1898 -0.2549
  111DOPC    HB15207   6.103   3.757   2.192  1.0619 -1.5233 -0.3425
  111DOPC    C215208   6.283   3.845   2.279  0.2561  0.9408  0.6642
  111DOPC    HS15209   6.318   3.750   2.325  1.4078  1.1720  0.3138
  111DOPC   O2115210   6.228   3.928   2.375  0.2312 -0.2452 -0.5646
  111DOPC   C2115211   6.139   3.866   2.456  0.5395 -0.8477 -0.7725
  111DOPC   O2215212   6.095   3.754   2.445  0.4103 -0.1551  0.1875
  111DOPC   C2215213   6.101   3.959   2.571 -0.3155  0.0558 -0.1306
  111DOPC   H2R15214   6.123   4.061   2.534  0.4879 -0.0062  0.1530
  111DOPC   H2S15215   6.179   3.943   2.649  0.8878 -2.8401 -1.7762
  111DOPC    C315216   6.426   3.910   2.230  0.0053  0.4820  0.0486
  111DOPC    HX15217   6.393   4.006   2.185 -2.2634 -0.6065 -0.7321
  111DOPC    HY15218   6.470   3.843   2.152 -2.7815  0.0087 -1.2314
  111DOPC   O3115219   6.518   3.918   2.342  0.2707  0.6106  0.6543
  111DOPC   C3115220   6.515   4.026   2.412  0.0427  0.0408  0.2756
  111DOPC   O3215221   6.449   4.128   2.380 -0.1239  0.8445 -0.5468
  111DOPC   C3215222   6.629   4.020   2.518 -0.0935 -0.5304  0.0359
  111DOPC   H2X15223   6.723   3.984   2.471  0.1666 -2.6090  1.9307
  111DOPC   H2Y15224   6.642   4.120   2.563 -0.9925 -0.1448 -0.5467
  111DOPC   C2315225   5.964   3.947   2.631  0.2535  0.3520 -0.6793
  111DOPC   H3R15226   5.964   3.849   2.683 -1.4847  2.0080  2.8093
  111DOPC   H3S15227   5.885   3.959   2.554  0.3910  3.5719 -0.4792
  111DOPC   C2415228   5.955   4.049   2.740 -0.0735  0.0821 -0.3725
  111DOPC   H4R15229   5.845   4.057   2.753 -0.2961  0.6096 -2.2786
  111DOPC   H4S15230   5.980   4.149   2.700  0.3508  0.1625  0.0766
  111DOPC   C2515231   6.022   4.020   2.871  0.1030 -0.2785 -0.1716
  111DOPC   H5R15232   6.057   4.113   2.921 -1.5490  0.4837 -0.3729
  111DOPC   H5S15233   6.108   3.951   2.860  0.0961 -0.1578 -1.0623
  111DOPC   C2615234   5.925   3.944   2.966 -0.4818  0.1725  0.1214
  111DOPC   H6R15235   5.914   3.848   2.911  1.3178  0.8564 -1.5718
  111DOPC   H6S15236   5.835   4.008   2.976 -1.2713 -1.1924  2.3719
  111DOPC   C2715237   5.989   3.906   3.101  0.1559  0.1245  0.6164
  111DOPC   H7R15238   6.023   3.996   3.157 -0.1782 -0.1718  1.3132
  111DOPC   H7S15239   6.081   3.851   3.072  0.9118  0.5700  2.0585
  111DOPC   C2815240   5.900   3.832   3.200  0.0110 -0.0294 -0.2962
  111DOPC   H8R15241   5.977   3.795   3.271  0.7764 -0.7161 -1.4460
  111DOPC   H8S15242   5.843   3.746   3.158 -1.1632  0.8229 -0.5027
  111DOPC   C2915243   5.791   3.917   3.267 -0.7150 -0.6860  0.1990
  111DOPC   H9R15244   5.708   3.950   3.204  0.3082 -2.0091 -1.9493
  111DOPC  C21015245   5.778   3.952   3.400 -0.2005 -0.1128  0.7828
  111DOPC  H10R15246   5.691   4.004   3.441 -0.2061 -0.6061  1.4130
  111DOPC  C21115247   5.885   3.912   3.502  0.0685 -0.2820  0.5482
  111DOPC  H11R15248   5.977   3.973   3.490 -0.9146  1.0968 -0.2820
  111DOPC  H11S15249   5.914   3.806   3.512 -1.5560 -0.7819  0.1901
  111DOPC  C21215250   5.838   3.956   3.644 -0.4168  0.1103  1.2070
  111DOPC  H12R15251   5.775   3.874   3.684 -1.6684 -0.2292 -1.2871
  111DOPC  H12S15252   5.780   4.051   3.639 -1.8786 -0.8068 -0.1551
  111DOPC  C21315253   5.951   3.984   3.747  0.6208 -0.2721  0.4359
  111DOPC  H13R15254   6.006   3.888   3.753 -1.1707 -1.2945  1.4177
  111DOPC  H13S15255   6.013   4.062   3.699  0.7169 -1.3426 -1.2281
  111DOPC  C21415256   5.915   4.043   3.890  0.6557 -0.1393 -0.5971
  111DOPC  H14R15257   5.857   3.971   3.952 -0.3187 -0.1728 -1.5175
  111DOPC  H14S15258   5.846   4.127   3.869  0.7234  0.2619  0.7011
  111DOPC  C21515259   6.035   4.087   3.972  0.4795 -0.6040  0.2261
  111DOPC  H15R15260   6.116   4.011   3.963 -0.2183 -1.6222  2.0206
  111DOPC  H15S15261   6.014   4.102   4.080  1.1528 -1.9498  0.5677
  111DOPC  C21615262   6.087   4.227   3.938 -0.6720  0.2767 -0.0413
  111DOPC  H16R15263   6.009   4.303   3.957 -1.6673 -0.2550 -1.7714
  111DOPC  H16S15264   6.106   4.230   3.829  1.8010 -0.6927  0.2887
  111DOPC  C21715265   6.215   4.269   4.012 -0.2596  0.9308  1.2471
  111DOPC  H17R15266   6.227   4.376   3.986  0.7884  0.6947  0.6942
  111DOPC  H17S15267   6.301   4.217   3.964 -1.2801  1.5580 -1.4492
  111DOPC  C21815268   6.212   4.252   4.163 -0.7634  0.0339 -0.5028
  111DOPC  H18R15269   6.214   4.148   4.201 -1.9673 -0.2504 -1.1477
  111DOPC  H18S15270   6.112   4.290   4.194  0.6061  1.4781  2.5918
  111DOPC  H18T15271   6.288   4.313   4.216 -1.4712  0.2502  0.2936
  111DOPC   C3315272   6.609   3.919   2.633  0.1515 -0.5627  0.5463
  111DOPC   H3X15273   6.716   3.898   2.650  1.1149  1.7663 -1.8785
  111DOPC   H3Y15274   6.571   3.820   2.600  1.8355 -0.7339 -0.9869
  111DOPC   C3415275   6.539   3.985   2.757  0.2317  0.2941 -0.1269
  111DOPC   H4X15276   6.451   4.050   2.736  1.6102  2.0701 -0.6502
  111DOPC   H4Y15277   6.603   4.064   2.803  0.5800 -1.5948  2.8856
  111DOPC   C3515278   6.518   3.883   2.865 -0.0940  0.2442  0.6190
  111DOPC   H5X15279   6.597   3.805   2.867  0.4034  0.6951 -0.5970
  111DOPC   H5Y15280   6.424   3.827   2.845  0.1657 -0.1500  0.5040
  111DOPC   C3615281   6.511   3.950   3.006 -0.2860  0.3975  0.5293
  111DOPC   H6X15282   6.612   3.995   3.019  0.1081 -0.2302 -0.3003
  111DOPC   H6Y15283   6.428   4.025   3.003 -0.7753 -0.1531 -0.0399
  111DOPC   C3715284   6.488   3.861   3.127  0.2129 -0.1568 -0.2995
  111DOPC   H7X15285   6.402   3.792   3.116 -0.5728  0.4153  1.7690
  111DOPC   H7Y15286   6.577   3.794   3.134 -1.7303 -2.8002  0.6187
  111DOPC   C3815287   6.486   3.934   3.262 -0.5545  0.0336 -0.2791
  111DOPC   H8X15288   6.568   4.008   3.264 -0.9644  0.5018 -0.6096
  111DOPC   H8Y15289   6.507   3.851   3.333  1.5510  0.3152 -0.5252
  111DOPC   C3915290   6.353   3.997   3.289  0.2877  0.3916  0.0447
  111DOPC   H9X15291   6.298   4.031   3.200  0.4109  0.6884  0.0794
  111DOPC  C31015292   6.303   4.018   3.410 -0.0996 -0.2016 -0.8137
  111DOPC  H10X15293   6.208   4.075   3.406 -0.0843 -0.2173 -2.7948
  111DOPC  C31115294   6.369   4.006   3.545  0.3002 -1.2765  0.8509
  111DOPC  H11X15295   6.478   4.004   3.528  0.4059  0.9619  1.0758
  111DOPC  H11Y15296   6.322   3.912   3.582 -2.8271 -0.6368 -1.0986
  111DOPC  C31215297   6.347   4.118   3.652  1.0389 -0.6623 -0.0403
  111DOPC  H12X15298   6.422   4.109   3.734 -0.0800  0.6465  1.1695
  111DOPC  H12Y15299   6.249   4.108   3.702  0.6758  0.9679 -0.3920
  111DOPC  C31315300   6.363   4.255   3.592 -0.0857 -0.3801 -0.6086
  111DOPC  H13X15301   6.465   4.267   3.549  0.6452  1.9549  1.5623
  111DOPC  H13Y15302   6.286   4.269   3.513 -0.0073  1.7216 -0.3729
  111DOPC  C31415303   6.341   4.374   3.689  0.1481 -0.3156 -0.0268
  111DOPC  H14X15304   6.236   4.356   3.723  0.0923 -1.9749 -0.9733
  111DOPC  H14Y15305   6.411   4.356   3.773  0.6653  0.7011 -0.2229
  111DOPC  C31515306   6.357   4.511   3.614  0.2121 -0.4179 -0.4924
  111DOPC  H15X15307   6.282   4.524   3.533 -1.6785  3.6395  1.5572
  111DOPC  H15Y15308   6.457   4.518   3.567 -0.1457 -2.8025 -1.7476
  111DOPC  C31615309   6.335   4.626   3.714  0.3312 -0.2124 -0.5016
  111DOPC  H16X15310   6.250   4.593   3.777  1.6633 -0.2671  1.3547
  111DOPC  H16Y15311   6.420   4.625   3.785 -1.7567 -0.7457  2.1237
  111DOPC  C31715312   6.306   4.764   3.654 -0.6508  0.1635 -0.2131
  111DOPC  H17X15313   6.394   4.792   3.592 -1.8178 -1.7554 -2.9143
  111DOPC  H17Y15314   6.213   4.770   3.594 -0.4339  0.7609 -0.4979
  111DOPC  C31815315   6.292   4.880   3.758 -0.8888  0.2268 -0.1114
  111DOPC  H18X15316   6.295   4.978   3.706  4.1564  1.0184  1.0627
  111DOPC  H18Y15317   6.198   4.879   3.817  0.2333 -2.2137  1.8406
  111DOPC  H18Z15318   6.384   4.876   3.821 -0.3758  2.1338 -0.6487
  112DOPC     N15319   4.555   1.817   1.898 -0.1043 -0.5685  0.0982
  112DOPC   C1215320   4.484   1.704   1.952  0.0414  0.3781 -0.3653
  112DOPC  H12A15321   4.478   1.718   2.059  1.2917  0.9470 -0.3484
  112DOPC  H12B15322   4.548   1.619   1.933 -0.0261  0.6454 -1.8892
  112DOPC   C1315323   4.694   1.816   1.948 -0.2676 -0.3981  0.2399
  112DOPC  H13A15324   4.748   1.907   1.926 -3.2746  1.3251 -0.6305
  112DOPC  H13B15325   4.692   1.809   2.056 -2.2773  0.3355  0.2954
  112DOPC  H13C15326   4.754   1.731   1.920 -0.3337 -0.3818  0.0425
  112DOPC   C1415327   4.487   1.948   1.939  0.2275  0.3389  0.5660
  112DOPC  H14A15328   4.516   1.980   2.038  0.1133 -0.6128  0.9140
  112DOPC  H14B15329   4.530   2.024   1.875  1.8394 -0.1075  1.0706
  112DOPC  H14C15330   4.383   1.957   1.912  0.3240  0.4577  0.2205
  112DOPC   C1515331   4.564   1.819   1.743  0.2141 -0.4390  0.2534
  112DOPC  H15A15332   4.468   1.820   1.695  0.4991 -1.9703 -0.3817
  112DOPC  H15B15333   4.613   1.730   1.706 -0.3874 -0.8488  0.4329
  112DOPC  H15C15334   4.624   1.906   1.719 -0.0208 -0.1606  0.6615
  112DOPC   C1115335   4.344   1.665   1.909  0.3181  0.2162  0.1001
  112DOPC  H11A15336   4.355   1.633   1.803  2.9039 -3.5848  1.3128
  112DOPC  H11B15337   4.314   1.574   1.964  0.9754 -0.0463  0.0414
  112DOPC     P15338   4.174   1.796   2.056 -0.2768  0.1991  0.0133
  112DOPC   O1315339   4.090   1.913   2.048  0.1923  0.6807 -0.0156
  112DOPC   O1415340   4.259   1.797   2.175 -0.0749 -0.2602 -0.2977
  112DOPC   O1215341   4.251   1.772   1.924  0.5519 -0.0472 -0.1814
  112DOPC   O1115342   4.091   1.659   2.050  0.3797 -0.2996 -0.0531
  112DOPC    C115343   3.977   1.643   2.138  0.0305 -0.4801  0.3702
  112DOPC    HA15344   3.900   1.582   2.087 -0.6644  0.1640  0.6267
  112DOPC    HB15345   3.934   1.741   2.166  0.3581  0.7576 -3.0261
  112DOPC    C215346   4.009   1.554   2.265 -0.4441 -0.6024  0.6990
  112DOPC    HS15347   3.916   1.560   2.327  0.2022  2.6974  1.5361
  112DOPC   O2115348   4.127   1.603   2.332  0.2877 -0.5904 -0.1796
  112DOPC   C2115349   4.104   1.698   2.415 -0.1494 -0.8054 -0.4118
  112DOPC   O2215350   3.995   1.751   2.438 -0.0294  0.7785  0.2350
  112DOPC   C2215351   4.239   1.736   2.478  0.2570  0.3076 -0.0865
  112DOPC   H2R15352   4.242   1.847   2.473 -1.0974  0.4412  1.5447
  112DOPC   H2S15353   4.326   1.703   2.416  0.8297  2.6529 -0.6516
  112DOPC    C315354   4.036   1.410   2.217 -0.5057 -0.5693 -0.5958
  112DOPC    HX15355   4.114   1.416   2.138 -2.1462  0.9443 -2.1750
  112DOPC    HY15356   3.941   1.383   2.167 -1.0383  1.2837 -0.6645
  112DOPC   O3115357   4.060   1.325   2.335 -0.6536 -0.8722 -0.1062
  112DOPC   C3115358   4.189   1.287   2.344 -0.2018  0.4373  0.7589
  112DOPC   O3215359   4.276   1.315   2.260 -0.3333  0.0737  0.0903
  112DOPC   C3215360   4.206   1.193   2.464  0.3432  0.2474  1.0300
  112DOPC   H2X15361   4.113   1.142   2.498  0.4366 -0.1794  0.6476
  112DOPC   H2Y15362   4.281   1.118   2.433 -0.1609 -0.4225  1.3924
  112DOPC   C2315363   4.266   1.675   2.619  0.3306 -0.0569 -0.5133
  112DOPC   H3R15364   4.377   1.668   2.627  0.4131  1.8050  0.7732
  112DOPC   H3S15365   4.223   1.573   2.630 -2.0282  0.9223 -0.0866
  112DOPC   C2415366   4.219   1.772   2.728  0.7002  0.1387 -0.7572
  112DOPC   H4R15367   4.112   1.794   2.712  0.5925 -0.8455 -1.4981
  112DOPC   H4S15368   4.270   1.871   2.723  1.6640 -0.3368 -0.6450
  112DOPC   C2515369   4.241   1.712   2.879  0.1362 -0.6889  0.2600
  112DOPC   H5R15370   4.347   1.684   2.893  0.6070  1.5252  1.5984
  112DOPC   H5S15371   4.184   1.617   2.889 -1.5327  0.3601  1.2179
  112DOPC   C2615372   4.196   1.806   2.993 -0.0563 -0.2005  0.0147
  112DOPC   H6R15373   4.093   1.839   2.970  0.0738  0.5110  0.4468
  112DOPC   H6S15374   4.268   1.890   2.985  1.1643 -1.2797 -0.9714
  112DOPC   C2715375   4.199   1.737   3.130 -0.0337  0.1254 -0.3477
  112DOPC   H7R15376   4.295   1.686   3.152  0.0137 -0.0664 -0.9791
  112DOPC   H7S15377   4.130   1.651   3.123  0.1815 -0.0264 -0.5962
  112DOPC   C2815378   4.143   1.811   3.250 -0.3111  0.0221 -0.4288
  112DOPC   H8R15379   4.142   1.732   3.328  1.2788  1.2383  0.9205
  112DOPC   H8S15380   4.040   1.851   3.250  0.0776  1.0562 -0.8991
  112DOPC   C2915381   4.239   1.926   3.282  0.1568 -0.1948 -0.9289
  112DOPC   H9R15382   4.233   2.015   3.217 -1.4144 -1.4393 -2.6112
  112DOPC  C21015383   4.314   1.932   3.395 -0.2635  0.0590 -0.3754
  112DOPC  H10R15384   4.395   2.007   3.396 -0.0189 -0.1512 -1.9510
  112DOPC  C21115385   4.326   1.829   3.502 -0.2645 -0.4969  0.4484
  112DOPC  H11R15386   4.232   1.778   3.532  0.1546 -0.6889  1.4650
  112DOPC  H11S15387   4.348   1.870   3.602  1.0763 -1.6623  0.6521
  112DOPC  C21215388   4.444   1.731   3.470 -0.0248 -0.0907 -0.8408
  112DOPC  H12R15389   4.443   1.683   3.370  1.4340  2.0091 -1.9367
  112DOPC  H12S15390   4.441   1.644   3.540  2.0441 -0.9394 -1.7180
  112DOPC  C21315391   4.589   1.784   3.499 -0.1075 -0.2749 -0.3874
  112DOPC  H13R15392   4.588   1.822   3.604  1.6512 -2.2737  0.4247
  112DOPC  H13S15393   4.606   1.865   3.425  1.5939  0.0770  0.3414
  112DOPC  C21415394   4.695   1.676   3.478 -0.0088 -0.2046 -0.3102
  112DOPC  H14R15395   4.794   1.723   3.465 -0.8719  1.5312 -0.8798
  112DOPC  H14S15396   4.667   1.609   3.393 -2.0619  0.0805  0.0934
  112DOPC  C21515397   4.709   1.586   3.600 -0.3185 -1.6717 -0.6678
  112DOPC  H15R15398   4.610   1.552   3.636 -0.6299  1.7746  2.3607
  112DOPC  H15S15399   4.750   1.644   3.685  1.2777  0.9978 -3.0532
  112DOPC  C21615400   4.804   1.476   3.569  0.1286  0.2705 -0.0086
  112DOPC  H16R15401   4.905   1.518   3.552  0.4883 -0.1431  1.0580
  112DOPC  H16S15402   4.765   1.428   3.476 -0.4184  1.7641 -0.5819
  112DOPC  C21715403   4.821   1.365   3.682  0.1587 -0.1073 -0.1423
  112DOPC  H17R15404   4.891   1.286   3.647  0.7290  0.0636  0.5971
  112DOPC  H17S15405   4.725   1.311   3.698  0.5271  0.0218  3.3207
  112DOPC  C21815406   4.868   1.426   3.817 -0.5774  0.4295 -0.5896
  112DOPC  H18R15407   4.957   1.492   3.812 -2.4274  2.9978 -1.3217
  112DOPC  H18S15408   4.897   1.339   3.880  0.2702  0.8477 -0.4014
  112DOPC  H18T15409   4.790   1.480   3.875  0.4242  0.5993  0.6436
  112DOPC   C3315410   4.264   1.269   2.579 -0.7585  0.3598 -0.1726
  112DOPC   H3X15411   4.194   1.353   2.599 -2.4336 -0.8712 -0.6136
  112DOPC   H3Y15412   4.367   1.302   2.557 -0.1380 -1.5088 -0.2606
  112DOPC   C3415413   4.276   1.184   2.708 -0.0896 -0.0667  0.1839
  112DOPC   H4X15414   4.335   1.090   2.704  0.3784  0.2112  0.4705
  112DOPC   H4Y15415   4.173   1.148   2.728  0.3291 -0.3286  2.0049
  112DOPC   C3515416   4.331   1.265   2.819 -0.5244 -0.1656 -0.6650
  112DOPC   H5X15417   4.264   1.353   2.834 -2.0697 -1.2032 -1.1992
  112DOPC   H5Y15418   4.436   1.289   2.792 -0.4132 -0.6328 -0.6435
  112DOPC   C3615419   4.343   1.185   2.949 -0.1254  0.2064 -0.4309
  112DOPC   H6X15420   4.374   1.083   2.917  1.3832  0.5909 -0.2823
  112DOPC   H6Y15421   4.424   1.232   3.009 -0.0925  1.0249 -1.0960
  112DOPC   C3715422   4.212   1.193   3.027 -0.2795  0.5966  0.7475
  112DOPC   H7X15423   4.135   1.164   2.951 -0.2604  1.1019  0.5284
  112DOPC   H7Y15424   4.229   1.115   3.104  1.3707 -0.9495 -1.0654
  112DOPC   C3815425   4.180   1.330   3.092  0.2721  0.4914 -0.3290
  112DOPC   H8X15426   4.075   1.331   3.128  0.3430 -2.7027  0.3207
  112DOPC   H8Y15427   4.187   1.411   3.017 -2.4686  2.1295  1.0123
  112DOPC   C3915428   4.253   1.355   3.220 -0.5145  0.0574 -0.5804
  112DOPC   H9X15429   4.357   1.385   3.196 -0.7740  0.6919 -0.9510
  112DOPC  C31015430   4.222   1.332   3.347 -0.2192  0.4876 -0.4695
  112DOPC  H10X15431   4.285   1.368   3.430 -0.3624  1.3797 -0.7354
  112DOPC  C31115432   4.089   1.273   3.401 -0.2282 -0.0036 -0.0533
  112DOPC  H11X15433   4.115   1.167   3.418  1.2824  0.5231  1.2662
  112DOPC  H11Y15434   4.022   1.272   3.313 -0.3365  0.6550  0.0157
  112DOPC  C31215435   4.025   1.341   3.514  0.2679 -0.1573 -0.7876
  112DOPC  H12X15436   4.087   1.332   3.605  0.9762 -0.1924 -1.2686
  112DOPC  H12Y15437   3.932   1.288   3.543  1.5911 -0.2893  4.0448
  112DOPC  C31315438   3.994   1.491   3.479 -0.0407 -0.0358  0.9435
  112DOPC  H13X15439   4.082   1.558   3.469 -0.0321 -0.3622 -2.1024
  112DOPC  H13Y15440   3.947   1.495   3.379  0.4608  1.7081  0.7488
  112DOPC  C31415441   3.896   1.559   3.568  0.2942  0.0282 -0.5938
  112DOPC  H14X15442   3.800   1.504   3.561  1.0392 -1.3609 -0.0571
  112DOPC  H14Y15443   3.926   1.550   3.675  0.0375 -0.1178 -0.5329
  112DOPC  C31515444   3.873   1.710   3.526  0.0106 -0.2581 -0.4126
  112DOPC  H15X15445   3.817   1.720   3.430 -1.9807 -0.1481  0.7222
  112DOPC  H15Y15446   3.970   1.762   3.506 -0.2787 -0.0075 -1.2209
  112DOPC  C31615447   3.786   1.785   3.630 -0.2412 -0.5931 -0.2230
  112DOPC  H16X15448   3.697   1.724   3.657 -0.0262 -1.0567 -0.5496
  112DOPC  H16Y15449   3.847   1.796   3.723  1.2152  1.9502 -1.3821
  112DOPC  C31715450   3.740   1.924   3.578  0.3703 -0.0338 -0.2657
  112DOPC  H17X15451   3.689   1.926   3.479  0.2333  0.3369 -0.1913
  112DOPC  H17Y15452   3.667   1.964   3.652 -0.9704  0.7275 -1.9188
  112DOPC  C31815453   3.848   2.030   3.564 -0.5572 -0.2162 -0.0453
  112DOPC  H18X15454   3.923   2.033   3.646  1.4864  2.3867 -1.8254
  112DOPC  H18Y15455   3.901   2.008   3.469 -0.5891  1.4058 -0.4746
  112DOPC  H18Z15456   3.815   2.136   3.558 -1.3269 -0.5419 -2.1799
  113DOPC     N15457   1.879   1.693   2.415 -0.1346  0.7396  0.6713
  113DOPC   C1215458   1.917   1.775   2.535  0.2125 -0.3952  0.2915
  113DOPC  H12A15459   1.852   1.754   2.618  0.2386 -0.2072  0.3586
  113DOPC  H12B15460   1.907   1.878   2.506 -2.1432 -0.6229  0.0989
  113DOPC   C1315461   1.729   1.691   2.396 -0.2062 -0.3141  0.0537
  113DOPC  H13A15462   1.687   1.790   2.405 -1.9506 -0.9796 -0.4450
  113DOPC  H13B15463   1.689   1.652   2.303 -0.5997 -0.4659  0.2839
  113DOPC  H13C15464   1.676   1.640   2.475  0.5031 -0.2421  0.5945
  113DOPC   C1415465   1.912   1.551   2.424 -0.1670  0.3671  0.1966
  113DOPC  H14A15466   2.019   1.542   2.409 -0.0238 -0.8866  1.7190
  113DOPC  H14B15467   1.864   1.511   2.512 -1.3382  0.0485 -0.5756
  113DOPC  H14C15468   1.873   1.502   2.336  1.0103  2.2758 -1.4794
  113DOPC   C1515469   1.927   1.740   2.285  0.1045  0.3168  1.5040
  113DOPC  H15A15470   2.035   1.744   2.277  0.0960 -2.0693 -2.5570
  113DOPC  H15B15471   1.905   1.844   2.264  1.5286  0.0014 -2.3036
  113DOPC  H15C15472   1.888   1.678   2.205  1.1115  1.2209  0.2655
  113DOPC   C1115473   2.068   1.763   2.589  0.5071 -0.6085 -0.6663
  113DOPC  H11A15474   2.076   1.831   2.677  2.5496 -1.0244 -0.4778
  113DOPC  H11B15475   2.085   1.658   2.623  2.6400 -0.9601 -2.5359
  113DOPC     P15476   2.175   1.931   2.413  0.0912 -0.4485 -0.1569
  113DOPC   O1315477   2.078   2.022   2.479  0.1562  0.0230 -0.0276
  113DOPC   O1415478   2.179   1.927   2.267 -0.3485  0.2918 -0.1684
  113DOPC   O1215479   2.163   1.792   2.483  0.0207 -0.1528 -0.1176
  113DOPC   O1115480   2.323   1.989   2.458 -0.0060  0.0249 -0.2307
  113DOPC    C115481   2.428   1.906   2.503 -0.2003  0.0825  0.6375
  113DOPC    HA15482   2.528   1.951   2.485  0.7899 -1.8375  1.0154
  113DOPC    HB15483   2.418   1.810   2.449 -1.0568  0.9379 -0.7897
  113DOPC    C215484   2.416   1.867   2.652  0.3463  0.7579 -0.1974
  113DOPC    HS15485   2.310   1.839   2.674  0.1373  2.1651  0.7041
  113DOPC   O2115486   2.453   1.982   2.731  0.3278  0.1415 -0.0670
  113DOPC   C2115487   2.377   2.011   2.840 -0.5349 -0.6437 -0.0988
  113DOPC   O2215488   2.308   1.938   2.903  0.4003 -0.4522  0.3608
  113DOPC   C2215489   2.402   2.156   2.864  0.0876  1.5045  0.3717
  113DOPC   H2R15490   2.344   2.214   2.789 -0.5702  1.4933  0.8585
  113DOPC   H2S15491   2.510   2.179   2.860  0.1582  1.2642  0.9039
  113DOPC    C315492   2.489   1.731   2.679  0.2076  0.1553  0.3066
  113DOPC    HX15493   2.595   1.746   2.649  0.1784 -0.2805 -0.0290
  113DOPC    HY15494   2.458   1.643   2.618  0.1490  0.7697 -0.5786
  113DOPC   O3115495   2.502   1.700   2.818  0.4602  0.3900  0.2642
  113DOPC   C3115496   2.386   1.648   2.867 -0.5403 -0.0241 -0.1975
  113DOPC   O3215497   2.285   1.619   2.808 -0.0799  0.0233  0.2370
  113DOPC   C3215498   2.403   1.638   3.017 -0.0719 -0.1600  0.1101
  113DOPC   H2X15499   2.499   1.682   3.052 -0.1371 -0.1371  0.2618
  113DOPC   H2Y15500   2.319   1.706   3.043 -0.4927 -0.8311  0.5545
  113DOPC   C2315501   2.358   2.187   3.003  0.2655 -0.6083  0.8806
  113DOPC   H3R15502   2.429   2.141   3.075 -0.0529 -1.1731  0.8358
  113DOPC   H3S15503   2.257   2.150   3.030  0.2785 -0.3494  1.2830
  113DOPC   C2415504   2.354   2.337   3.031 -0.4084  0.5629  0.5198
  113DOPC   H4R15505   2.285   2.381   2.956 -0.6855 -1.9891 -0.8329
  113DOPC   H4S15506   2.458   2.373   3.017  1.0043 -3.3059 -0.5346
  113DOPC   C2515507   2.309   2.373   3.174  0.1162  0.5190 -0.3560
  113DOPC   H5R15508   2.397   2.355   3.239  0.9129 -1.3351 -1.8235
  113DOPC   H5S15509   2.227   2.303   3.203  0.7820 -0.4628 -0.7591
  113DOPC   C2615510   2.252   2.517   3.179  0.0562  0.5815  0.4012
  113DOPC   H6R15511   2.162   2.511   3.113 -0.6520  0.4142  1.3560
  113DOPC   H6S15512   2.316   2.596   3.134  0.1557 -0.6983 -1.8604
  113DOPC   C2715513   2.204   2.563   3.320 -0.1337 -0.0479  0.1953
  113DOPC   H7R15514   2.137   2.491   3.371  0.9257 -0.1645  1.4687
  113DOPC   H7S15515   2.140   2.651   3.297  0.5135  0.2500 -0.5506
  113DOPC   C2815516   2.326   2.616   3.397  0.3386 -0.2796 -0.3958
  113DOPC   H8R15517   2.389   2.688   3.341  3.6404 -0.4871  2.6622
  113DOPC   H8S15518   2.404   2.541   3.426  0.7646  0.0378 -0.7022
  113DOPC   C2915519   2.271   2.683   3.514  0.6632 -0.0978 -0.0333
  113DOPC   H9R15520   2.214   2.612   3.575 -2.0328  2.1173  0.2217
  113DOPC  C21015521   2.300   2.799   3.570  0.5927  0.2001  0.3809
  113DOPC  H10R15522   2.249   2.838   3.659  1.0486 -0.0623  0.7601
  113DOPC  C21115523   2.393   2.899   3.509  0.6333  0.5821  0.0035
  113DOPC  H11R15524   2.475   2.861   3.445  0.0782  0.3523 -0.5753
  113DOPC  H11S15525   2.453   2.938   3.594  0.1723 -0.5824  0.8786
  113DOPC  C21215526   2.329   3.016   3.441  0.1832 -0.2646 -0.4439
  113DOPC  H12R15527   2.402   3.099   3.449 -2.5140  2.1857  0.2608
  113DOPC  H12S15528   2.234   3.045   3.489 -1.3257 -2.2216 -2.0502
  113DOPC  C21315529   2.284   2.983   3.300  0.1128 -0.4222 -0.4230
  113DOPC  H13R15530   2.196   2.916   3.295  0.2488 -0.5659 -0.9565
  113DOPC  H13S15531   2.362   2.937   3.235 -1.0395 -0.8967 -1.5148
  113DOPC  C21415532   2.227   3.107   3.228 -0.8583  0.9679 -0.0591
  113DOPC  H14R15533   2.301   3.189   3.215  1.8524 -1.5343 -1.4749
  113DOPC  H14S15534   2.139   3.154   3.277 -0.9097  1.0028 -0.1829
  113DOPC  C21515535   2.190   3.074   3.083  0.1293 -0.0926  0.7322
  113DOPC  H15R15536   2.119   2.989   3.093  1.6231 -1.4036  0.5109
  113DOPC  H15S15537   2.272   3.032   3.022 -0.5281 -0.8958  0.3832
  113DOPC  C21615538   2.132   3.197   3.016 -0.8326  0.7862 -0.3126
  113DOPC  H16R15539   2.218   3.266   2.998 -0.7183  0.6395 -0.3284
  113DOPC  H16S15540   2.057   3.246   3.082 -1.3524  0.6608 -0.8090
  113DOPC  C21715541   2.070   3.176   2.878 -0.1234 -0.6929  0.5161
  113DOPC  H17R15542   1.977   3.115   2.880 -1.7266  1.6375  1.8106
  113DOPC  H17S15543   2.149   3.133   2.814 -0.3032 -0.6395  0.2578
  113DOPC  C21815544   2.029   3.313   2.820 -0.7343  0.2268  0.1529
  113DOPC  H18R15545   1.969   3.367   2.896 -1.8613 -0.3151 -0.3280
  113DOPC  H18S15546   1.968   3.306   2.728 -0.5277 -0.6041  0.0708
  113DOPC  H18T15547   2.116   3.380   2.802 -1.1569  0.3538 -1.5363
  113DOPC   C3315548   2.393   1.501   3.080 -0.3916 -0.3393  0.4191
  113DOPC   H3X15549   2.292   1.458   3.058  0.8471 -2.2695 -2.0096
  113DOPC   H3Y15550   2.400   1.521   3.189 -0.8633 -0.6197  0.5061
  113DOPC   C3415551   2.500   1.407   3.039  0.6419  0.2003  0.5722
  113DOPC   H4X15552   2.583   1.409   3.113  1.0396  1.7148  0.1209
  113DOPC   H4Y15553   2.530   1.424   2.933  0.8927  0.0723  0.6219
  113DOPC   C3515554   2.430   1.262   3.038 -0.2386  0.1545 -0.2932
  113DOPC   H5X15555   2.335   1.266   2.981 -0.5079  0.6540  0.1892
  113DOPC   H5Y15556   2.398   1.241   3.143  0.3152  0.3581 -0.0796
  113DOPC   C3615557   2.520   1.151   3.000  0.0124 -0.5201 -0.6497
  113DOPC   H6X15558   2.564   1.169   2.899  2.2012 -1.1575  0.1406
  113DOPC   H6Y15559   2.609   1.162   3.065 -1.5645 -1.4597  1.7932
  113DOPC   C3715560   2.471   1.009   3.018  0.1022 -1.4628  0.0822
  113DOPC   H7X15561   2.437   0.998   3.123  1.1371  0.4052  0.6709
  113DOPC   H7Y15562   2.380   0.996   2.956  0.4860 -1.1454 -0.5566
  113DOPC   C3815563   2.575   0.912   2.970 -0.1659  0.9071  0.8235
  113DOPC   H8X15564   2.606   0.931   2.865 -1.2090 -2.1188 -0.1366
  113DOPC   H8Y15565   2.511   0.821   2.978 -2.0103  2.1432  0.6924
  113DOPC   C3915566   2.698   0.903   3.058  0.3188  0.1221 -0.2135
  113DOPC   H9X15567   2.784   0.964   3.029  0.7051  0.4926  1.5469
  113DOPC  C31015568   2.704   0.825   3.169  1.0876  0.4528 -0.4175
  113DOPC  H10X15569   2.802   0.811   3.216  0.1165 -0.4844  1.4353
  113DOPC  C31115570   2.597   0.721   3.211 -0.2059 -0.4448  0.2176
  113DOPC  H11X15571   2.643   0.623   3.188  3.1509  1.3771 -1.5749
  113DOPC  H11Y15572   2.507   0.727   3.146  1.9680  1.1264 -2.9316
  113DOPC  C31215573   2.571   0.714   3.367 -0.2218  0.1913 -0.3104
  113DOPC  H12X15574   2.671   0.712   3.416 -0.9281  0.2197  1.1538
  113DOPC  H12Y15575   2.520   0.621   3.401  1.1334 -0.0552  1.1595
  113DOPC  C31315576   2.498   0.836   3.430  0.6511  0.3674  0.5427
  113DOPC  H13X15577   2.402   0.839   3.373 -0.1405 -1.5203  1.6837
  113DOPC  H13Y15578   2.468   0.800   3.531 -0.0729 -2.2035 -0.4956
  113DOPC  C31415579   2.574   0.966   3.434  0.1723  0.3236 -0.2956
  113DOPC  H14X15580   2.682   0.952   3.453  0.4583  1.7823 -0.7308
  113DOPC  H14Y15581   2.563   1.010   3.332 -0.9678 -1.2003 -0.8694
  113DOPC  C31515582   2.516   1.059   3.542  0.3187  0.2028  0.0513
  113DOPC  H15X15583   2.516   1.011   3.642  1.2922  2.0443  0.9890
  113DOPC  H15Y15584   2.409   1.087   3.528 -0.0020 -1.3015 -0.7734
  113DOPC  C31615585   2.594   1.187   3.551 -0.0321 -0.2834 -0.7515
  113DOPC  H16X15586   2.694   1.146   3.580 -0.6098 -0.9350  0.4088
  113DOPC  H16Y15587   2.594   1.244   3.456 -0.3875  1.5258  0.2975
  113DOPC  C31715588   2.560   1.282   3.668  0.7121  0.8332  0.5176
  113DOPC  H17X15589   2.456   1.320   3.668  0.8531  1.2872 -1.0256
  113DOPC  H17Y15590   2.582   1.237   3.767 -0.9353 -0.6227  0.2693
  113DOPC  C31815591   2.651   1.403   3.672  0.0136 -0.2025 -0.6184
  113DOPC  H18X15592   2.644   1.455   3.574 -0.3883 -2.0529 -1.6253
  113DOPC  H18Y15593   2.624   1.457   3.765 -0.5212 -1.6313  0.0918
  113DOPC  H18Z15594   2.751   1.366   3.703 -0.2537 -0.0656  0.4564
  114DOPC     N15595   2.058   7.031   1.810 -0.5859 -0.2088  0.0561
  114DOPC   C1215596   1.979   6.938   1.716 -0.6875 -0.2769 -1.3375
  114DOPC  H12A15597   2.026   6.933   1.618 -0.4608 -0.5055 -1.2195
  114DOPC  H12B15598   1.885   6.987   1.699 -1.0771  0.5175  2.3164
  114DOPC   C1315599   2.036   7.007   1.958 -0.2564  0.3412 -0.1971
  114DOPC  H13A15600   2.105   7.057   2.024  0.1335  0.1630 -0.4673
  114DOPC  H13B15601   1.936   7.012   1.998  0.0316 -0.1690  0.6138
  114DOPC  H13C15602   2.063   6.903   1.962 -4.5323 -0.9380  1.6996
  114DOPC   C1415603   2.028   7.168   1.778 -0.7428 -0.7061  0.6689
  114DOPC  H14A15604   2.095   7.241   1.820 -1.0232  0.8645 -1.4864
  114DOPC  H14B15605   2.032   7.176   1.670  1.4545 -3.6258  0.3848
  114DOPC  H14C15606   1.925   7.185   1.805 -0.6489 -1.0441  1.2543
  114DOPC   C1515607   2.202   7.009   1.801  0.0596  0.6241  0.0628
  114DOPC  H15A15608   2.261   7.084   1.852  0.4196  1.2104 -1.1892
  114DOPC  H15B15609   2.235   7.003   1.699  2.7778  0.2247  0.8912
  114DOPC  H15C15610   2.226   6.912   1.843  1.1852  1.7733  2.2555
  114DOPC   C1115611   1.965   6.787   1.750 -0.0696  0.0809 -0.2039
  114DOPC  H11A15612   1.913   6.776   1.848 -0.9696  0.4106 -0.6281
  114DOPC  H11B15613   1.899   6.738   1.675  0.7380  0.0910 -0.9276
  114DOPC     P15614   2.173   6.671   1.640 -0.0260 -0.7579 -0.2176
  114DOPC   O1315615   2.320   6.703   1.645 -0.1117  0.4445  0.0371
  114DOPC   O1415616   2.106   6.706   1.514  0.3470  0.2460 -0.3508
  114DOPC   O1215617   2.098   6.740   1.760 -0.1931 -0.0514 -0.3742
  114DOPC   O1115618   2.152   6.522   1.678  0.7633 -0.3590 -0.4191
  114DOPC    C115619   2.088   6.462   1.787 -0.1300  0.1004 -0.0240
  114DOPC    HA15620   2.071   6.354   1.769 -1.4961  0.5452 -1.7246
  114DOPC    HB15621   1.985   6.502   1.796  0.7389  2.1810  1.5964
  114DOPC    C215622   2.169   6.491   1.915  0.5409  0.1515 -0.0368
  114DOPC    HS15623   2.195   6.599   1.914  1.5674 -0.0420  1.4118
  114DOPC   O2115624   2.290   6.411   1.908 -0.2136  0.4546 -0.3070
  114DOPC   C2115625   2.399   6.454   1.959 -0.3876 -0.0552  0.0391
  114DOPC   O2215626   2.420   6.562   2.012  0.1498 -0.0652 -0.4104
  114DOPC   C2215627   2.520   6.347   1.945  0.8331 -0.2110 -0.4072
  114DOPC   H2R15628   2.550   6.362   1.839 -0.3004 -0.7687 -0.8154
  114DOPC   H2S15629   2.463   6.256   1.973 -0.6066  1.4015  2.2842
  114DOPC    C315630   2.086   6.465   2.044 -0.4461 -0.5267 -0.4818
  114DOPC    HX15631   2.065   6.356   2.035  1.6537 -1.1730  1.4770
  114DOPC    HY15632   1.992   6.524   2.050 -0.6433 -0.8464 -0.3941
  114DOPC   O3115633   2.163   6.510   2.160 -0.5386  0.1747 -0.3412
  114DOPC   C3115634   2.160   6.418   2.256  0.1483  0.2941  0.3409
  114DOPC   O3215635   2.104   6.310   2.250  0.1092  0.4314 -0.7377
  114DOPC   C3215636   2.254   6.467   2.373  0.5647  0.7874 -0.7844
  114DOPC   H2X15637   2.357   6.486   2.335  0.6916  2.8362  0.4582
  114DOPC   H2Y15638   2.217   6.566   2.406  1.1382  0.9623 -0.6515
  114DOPC   C2315639   2.645   6.382   2.036 -0.7860 -0.6897  0.7758
  114DOPC   H3R15640   2.686   6.476   1.994 -0.9348 -2.3207 -3.5338
  114DOPC   H3S15641   2.723   6.304   2.022 -0.7180 -1.1213  3.0928
  114DOPC   C2415642   2.622   6.409   2.186 -1.1341 -0.4081 -0.1414
  114DOPC   H4R15643   2.597   6.310   2.231  1.0184 -0.7802  0.3705
  114DOPC   H4S15644   2.536   6.477   2.203 -0.3768  1.1498 -2.0981
  114DOPC   C2515645   2.737   6.467   2.270 -0.5545  0.2978 -0.4053
  114DOPC   H5R15646   2.774   6.564   2.229 -1.6594 -0.2441 -2.8796
  114DOPC   H5S15647   2.828   6.403   2.269 -0.6693  0.1172  0.3119
  114DOPC   C2615648   2.695   6.488   2.415 -0.4904 -0.7317  0.3025
  114DOPC   H6R15649   2.647   6.398   2.459 -2.1765 -0.8656 -1.6357
  114DOPC   H6S15650   2.614   6.564   2.412  0.5458  0.4082  0.5020
  114DOPC   C2715651   2.813   6.537   2.506 -0.0318  0.3576  0.0457
  114DOPC   H7R15652   2.867   6.619   2.455  0.3815 -0.8380 -1.5133
  114DOPC   H7S15653   2.893   6.460   2.503  0.0718  0.4924 -1.6008
  114DOPC   C2815654   2.789   6.584   2.647 -0.0315 -0.2844 -0.5036
  114DOPC   H8R15655   2.723   6.509   2.694  0.8296 -1.5344 -1.2274
  114DOPC   H8S15656   2.724   6.673   2.637 -1.4680 -1.2914 -0.3478
  114DOPC   C2915657   2.907   6.628   2.729 -0.6511  0.4409 -0.0218
  114DOPC   H9R15658   2.972   6.712   2.702 -1.0169  1.1305  1.1638
  114DOPC  C21015659   2.949   6.567   2.841  0.2136  0.4924  0.1696
  114DOPC  H10R15660   3.041   6.606   2.887  0.4591  1.8190 -1.3451
  114DOPC  C21115661   2.895   6.440   2.905 -0.4525 -0.5072 -0.4746
  114DOPC  H11R15662   2.979   6.367   2.902  0.8972  0.7838  2.2411
  114DOPC  H11S15663   2.812   6.389   2.851  0.0698  0.4333 -2.2347
  114DOPC  C21215664   2.880   6.464   3.058 -0.7380 -0.6622 -0.5896
  114DOPC  H12R15665   2.807   6.548   3.068  0.4799  0.4120 -0.5133
  114DOPC  H12S15666   2.970   6.514   3.100 -1.1408  0.0273 -0.5180
  114DOPC  C21315667   2.823   6.343   3.126 -0.2712  0.0287 -0.1346
  114DOPC  H13R15668   2.889   6.253   3.132 -0.9530 -0.4765 -0.0543
  114DOPC  H13S15669   2.733   6.306   3.071 -0.4660 -0.9793  0.8217
  114DOPC  C21415670   2.782   6.388   3.270 -0.5381  0.5253  0.0184
  114DOPC  H14R15671   2.686   6.444   3.270 -0.7904  0.1139 -0.8771
  114DOPC  H14S15672   2.861   6.446   3.321 -1.1933  1.8202 -0.4107
  114DOPC  C21515673   2.757   6.265   3.358  0.5705 -0.0219  0.0613
  114DOPC  H15R15674   2.843   6.196   3.367  0.6960  0.2967  1.4276
  114DOPC  H15S15675   2.666   6.215   3.317  1.0452 -0.1057 -0.9267
  114DOPC  C21615676   2.729   6.309   3.501  0.4099 -0.4684 -0.7756
  114DOPC  H16R15677   2.681   6.407   3.520  0.0943 -1.0328  1.6798
  114DOPC  H16S15678   2.825   6.345   3.545 -0.0398  0.0259 -0.1757
  114DOPC  C21715679   2.666   6.212   3.602  0.0778 -0.1465  0.2323
  114DOPC  H17R15680   2.659   6.277   3.691  1.0226  0.8915 -0.4241
  114DOPC  H17S15681   2.731   6.124   3.624 -3.5989 -2.9190  1.0650
  114DOPC  C21815682   2.534   6.148   3.558  0.5014 -0.6822  0.5798
  114DOPC  H18R15683   2.557   6.096   3.462 -0.0037  1.3431 -0.7111
  114DOPC  H18S15684   2.465   6.233   3.534  2.3158  0.7215  0.1339
  114DOPC  H18T15685   2.498   6.076   3.634 -0.0104 -0.6278  0.3942
  114DOPC   C3315686   2.253   6.380   2.506  0.6668 -0.4221  0.3080
  114DOPC   H3X15687   2.330   6.429   2.569 -0.4975  0.0285  1.4411
  114DOPC   H3Y15688   2.304   6.284   2.483  2.0371 -0.2725  2.5037
  114DOPC   C3415689   2.125   6.376   2.574  0.5061 -0.3526  0.0671
  114DOPC   H4X15690   2.043   6.329   2.516  1.1834 -1.1493 -0.2609
  114DOPC   H4Y15691   2.093   6.479   2.603  1.2533 -0.2496  0.5657
  114DOPC   C3515692   2.134   6.310   2.713 -0.1613 -0.4604  0.2559
  114DOPC   H5X15693   2.221   6.341   2.775  0.2484  0.8458 -0.9389
  114DOPC   H5Y15694   2.139   6.200   2.696 -0.1132 -1.1294  3.8227
  114DOPC   C3615695   2.001   6.324   2.792  0.0137  0.0212 -0.5700
  114DOPC   H6X15696   1.974   6.432   2.799  0.4055  0.0135  1.6637
  114DOPC   H6Y15697   1.914   6.270   2.748  0.8772 -2.4216  0.5438
  114DOPC   C3715698   2.009   6.284   2.937  0.1574 -0.3266  0.1004
  114DOPC   H7X15699   2.037   6.177   2.948 -0.2412 -0.4299  0.1121
  114DOPC   H7Y15700   2.074   6.353   2.995 -0.4076  0.3713 -0.0815
  114DOPC   C3815701   1.867   6.295   2.995  0.0425 -0.2339  0.5229
  114DOPC   H8X15702   1.800   6.209   2.970  1.5164 -1.8752  1.8971
  114DOPC   H8Y15703   1.813   6.386   2.961  0.3539  0.8139  2.6590
  114DOPC   C3915704   1.870   6.312   3.141 -0.1585 -0.0271  0.0435
  114DOPC   H9X15705   1.878   6.224   3.206 -0.0519  1.6651  2.4581
  114DOPC  C31015706   1.901   6.426   3.204  0.1291 -0.3972  0.1790
  114DOPC  H10X15707   1.900   6.427   3.314 -1.2071  1.4256  0.1993
  114DOPC  C31115708   1.928   6.563   3.143  0.0145  0.0086 -0.4353
  114DOPC  H11X15709   1.843   6.609   3.089 -0.3913 -0.1191  0.0822
  114DOPC  H11Y15710   2.015   6.563   3.073  1.7188  0.9614  1.5837
  114DOPC  C31215711   1.962   6.662   3.253  0.0613  0.5414  0.0355
  114DOPC  H12X15712   1.978   6.760   3.203  0.6231  1.2188  1.4857
  114DOPC  H12Y15713   2.062   6.656   3.300  0.4586  1.7240 -0.5859
  114DOPC  C31315714   1.851   6.690   3.357  0.0399  0.3137  0.8872
  114DOPC  H13X15715   1.752   6.694   3.307 -0.0950 -0.8905  1.0308
  114DOPC  H13Y15716   1.859   6.607   3.429  2.4809  0.8075  1.2760
  114DOPC  C31415717   1.863   6.829   3.434  0.7318 -0.4147 -0.7907
  114DOPC  H14X15718   1.969   6.834   3.465  0.2546 -0.9903  1.0811
  114DOPC  H14Y15719   1.820   6.913   3.376 -1.5824  0.3455  1.8183
  114DOPC  C31515720   1.781   6.806   3.569 -0.0300  0.3100  0.4353
  114DOPC  H15X15721   1.807   6.894   3.632  0.3620  1.0350 -0.6958
  114DOPC  H15Y15722   1.829   6.716   3.612  0.2540 -1.1252 -2.6408
  114DOPC  C31615723   1.628   6.785   3.545 -1.1048  0.2494 -0.5440
  114DOPC  H16X15724   1.615   6.684   3.500  0.2749 -0.4301  0.5228
  114DOPC  H16Y15725   1.582   6.781   3.645 -0.1058  2.4900  0.0906
  114DOPC  C31715726   1.558   6.900   3.467  0.6982 -0.0501 -0.1049
  114DOPC  H17X15727   1.549   6.992   3.529 -0.3561  0.7697 -1.4292
  114DOPC  H17Y15728   1.624   6.913   3.379  1.0173 -0.0056  0.1404
  114DOPC  C31815729   1.428   6.870   3.399  0.4803 -0.0891 -0.0719
  114DOPC  H18X15730   1.342   6.839   3.461 -0.5519 -0.3719 -1.6033
  114DOPC  H18Y15731   1.387   6.956   3.342  0.1622  1.0370  1.8048
  114DOPC  H18Z15732   1.451   6.784   3.331  1.3893  1.5868 -1.9947
  115DOPC     N15733   5.641   0.921   1.580  0.1625  0.6976  0.0087
  115DOPC   C1215734   5.641   1.045   1.665  0.2447 -0.0899 -0.1888
  115DOPC  H12A15735   5.541   1.086   1.668  0.1429 -0.3317  2.3275
  115DOPC  H12B15736   5.692   1.126   1.615 -0.8970  0.3022 -0.7506
  115DOPC   C1315737   5.593   0.808   1.661 -0.2479  0.1371  0.1126
  115DOPC  H13A15738   5.662   0.776   1.738 -0.2390 -1.0419 -0.3559
  115DOPC  H13B15739   5.494   0.828   1.699 -0.2530  0.1431  0.0946
  115DOPC  H13C15740   5.593   0.713   1.610  0.0486 -0.5277  1.2939
  115DOPC   C1415741   5.781   0.897   1.535 -0.4753 -0.2787  0.5720
  115DOPC  H14A15742   5.808   0.981   1.473 -1.0271 -2.1400 -2.4122
  115DOPC  H14B15743   5.843   0.882   1.622 -0.6951 -0.0619  0.7677
  115DOPC  H14C15744   5.797   0.812   1.470 -0.0778 -0.0668  0.3922
  115DOPC   C1515745   5.558   0.929   1.461 -0.0078  0.8077 -0.8318
  115DOPC  H15A15746   5.451   0.933   1.477 -0.1558 -1.0066 -1.1176
  115DOPC  H15B15747   5.565   0.844   1.395  2.4920  0.9170 -0.7936
  115DOPC  H15C15748   5.578   1.012   1.396 -1.1242  1.0041 -0.9423
  115DOPC   C1115749   5.686   1.038   1.813 -0.2745  0.2623 -0.5567
  115DOPC  H11A15750   5.661   1.133   1.866 -1.1116 -1.8596  3.1905
  115DOPC  H11B15751   5.635   0.965   1.879  0.9239 -0.1882 -0.1074
  115DOPC     P15752   5.931   1.131   1.809  0.0891  0.2374  0.2869
  115DOPC   O1315753   5.871   1.246   1.728  0.3504  0.0094 -0.4938
  115DOPC   O1415754   6.075   1.090   1.778  0.4198 -0.9700  0.1471
  115DOPC   O1215755   5.830   1.010   1.808  0.3318 -0.3027 -0.5393
  115DOPC   O1115756   5.919   1.171   1.957  0.2516 -0.1016  0.1954
  115DOPC    C115757   5.979   1.109   2.065 -0.1056 -0.0344 -0.2838
  115DOPC    HA15758   5.997   1.189   2.140  1.0166 -0.6437  0.1266
  115DOPC    HB15759   6.081   1.072   2.041  1.5387  1.4637  3.5598
  115DOPC    C215760   5.886   1.002   2.129  0.2852 -0.1872  0.2990
  115DOPC    HS15761   5.857   0.926   2.053 -0.6128  0.8187 -0.3806
  115DOPC   O2115762   5.768   1.059   2.195 -0.4943 -0.2178 -0.4003
  115DOPC   C2115763   5.695   0.961   2.251  0.2866  0.3228 -0.7521
  115DOPC   O2215764   5.701   0.837   2.234  0.9213  0.0912 -0.2014
  115DOPC   C2215765   5.604   1.041   2.337 -0.2560 -0.1985  0.2672
  115DOPC   H2R15766   5.547   1.116   2.279 -1.1841  1.7661  3.4312
  115DOPC   H2S15767   5.658   1.093   2.420 -0.0421 -0.2362  0.1515
  115DOPC    C315768   5.971   0.925   2.236  0.2531  0.2040 -0.2911
  115DOPC    HX15769   6.041   0.858   2.182 -0.4438 -2.8091  2.2290
  115DOPC    HY15770   5.918   0.850   2.298  1.0333  0.9218  1.2998
  115DOPC   O3115771   6.040   1.030   2.313  0.3905  0.6473  0.0376
  115DOPC   C3115772   5.985   1.053   2.437  0.1582 -0.3965  0.3588
  115DOPC   O3215773   5.888   0.991   2.478 -0.6548  0.3872  0.0110
  115DOPC   C3215774   6.058   1.151   2.518 -0.8743  0.2445  0.3016
  115DOPC   H2X15775   6.166   1.170   2.496 -0.7559  1.0159  1.4557
  115DOPC   H2Y15776   6.016   1.254   2.517  0.7412  0.9410  0.3264
  115DOPC   C2315777   5.499   0.964   2.418 -0.0681  0.4272 -0.3884
  115DOPC   H3R15778   5.438   0.900   2.351  0.1571  0.0860 -0.2667
  115DOPC   H3S15779   5.437   1.044   2.464 -1.0630  1.6121 -3.5445
  115DOPC   C2415780   5.569   0.885   2.531  1.2245  0.3612  0.4206
  115DOPC   H4R15781   5.642   0.951   2.580  0.2909 -0.1960  2.6798
  115DOPC   H4S15782   5.618   0.801   2.476 -0.1420  0.5872 -1.2367
  115DOPC   C2515783   5.476   0.824   2.633  0.0464  1.1141 -0.8678
  115DOPC   H5R15784   5.414   0.749   2.580  1.7272 -0.9090 -0.0994
  115DOPC   H5S15785   5.407   0.895   2.685 -2.2553 -2.8212  1.9791
  115DOPC   C2615786   5.556   0.760   2.742 -0.3767  0.6504  0.1550
  115DOPC   H6R15787   5.634   0.697   2.695 -0.8554 -0.7096  1.1268
  115DOPC   H6S15788   5.483   0.695   2.794  0.6917  0.8094  1.9444
  115DOPC   C2715789   5.608   0.862   2.838 -0.1594 -0.9100  0.5812
  115DOPC   H7R15790   5.527   0.930   2.873 -0.0848 -0.0777 -0.7860
  115DOPC   H7S15791   5.675   0.929   2.780 -2.1012  0.1187 -0.5880
  115DOPC   C2815792   5.691   0.802   2.958 -0.0228 -0.3965  0.3641
  115DOPC   H8R15793   5.771   0.740   2.911 -1.1185 -0.3747 -1.6879
  115DOPC   H8S15794   5.622   0.738   3.016  0.0941 -1.2578 -0.4174
  115DOPC   C2915795   5.756   0.912   3.033  0.2292 -0.0250 -0.0900
  115DOPC   H9R15796   5.794   0.995   2.973 -0.3146 -0.4048 -0.9735
  115DOPC  C21015797   5.748   0.935   3.172 -0.7470  0.1120  0.4175
  115DOPC  H10R15798   5.802   1.024   3.205 -1.9075  1.4193 -1.0416
  115DOPC  C21115799   5.685   0.849   3.278 -0.0553 -0.3733  0.7694
  115DOPC  H11R15800   5.745   0.854   3.372  0.1181 -0.6223  0.6740
  115DOPC  H11S15801   5.678   0.746   3.237 -0.0534  0.4017 -1.2594
  115DOPC  C21215802   5.543   0.909   3.309 -0.5821  0.4324 -0.2955
  115DOPC  H12R15803   5.477   0.889   3.222 -0.0773  0.5250 -0.7057
  115DOPC  H12S15804   5.570   1.015   3.325  0.1783  0.3582 -0.9954
  115DOPC  C21315805   5.481   0.852   3.437  0.2002  0.4447  0.5339
  115DOPC  H13R15806   5.481   0.741   3.447 -2.4723  0.4050  0.8940
  115DOPC  H13S15807   5.371   0.869   3.433  0.3825  2.5191  2.3376
  115DOPC  C21415808   5.549   0.910   3.563  0.6015  0.2341 -0.2634
  115DOPC  H14R15809   5.551   1.021   3.553  1.0337  0.1792 -0.9051
  115DOPC  H14S15810   5.653   0.871   3.573 -0.3346 -2.0162  1.3988
  115DOPC  C21515811   5.468   0.890   3.689 -0.0956 -0.6374 -0.4251
  115DOPC  H15R15812   5.395   0.971   3.712 -0.5878 -0.4466 -2.4875
  115DOPC  H15S15813   5.541   0.907   3.771 -0.9723  2.5681 -0.1580
  115DOPC  C21615814   5.407   0.756   3.711 -0.0489 -0.2168  0.0582
  115DOPC  H16R15815   5.482   0.676   3.691 -0.8529 -0.6835 -1.1932
  115DOPC  H16S15816   5.322   0.742   3.641  0.5162  2.8669 -1.3893
  115DOPC  C21715817   5.365   0.749   3.856 -0.1451 -0.5196 -0.0900
  115DOPC  H17R15818   5.297   0.836   3.865  1.0739  0.4041  0.4936
  115DOPC  H17S15819   5.451   0.771   3.922 -0.8972 -0.1220  0.7728
  115DOPC  C21815820   5.303   0.615   3.891  0.8120 -0.6364  0.7082
  115DOPC  H18R15821   5.382   0.541   3.865  0.9483 -0.4059  0.4650
  115DOPC  H18S15822   5.205   0.599   3.841  0.5058 -0.5163  1.2645
  115DOPC  H18T15823   5.292   0.599   4.000  2.6301  2.7199  1.5295
  115DOPC   C3315824   6.044   1.118   2.668  0.3158  0.2255 -1.2706
  115DOPC   H3X15825   6.042   1.009   2.687  2.8721  0.0734 -1.5400
  115DOPC   H3Y15826   5.943   1.159   2.691 -1.2275 -3.8508  0.1613
  115DOPC   C3415827   6.148   1.184   2.757  0.7804 -0.0396 -0.6629
  115DOPC   H4X15828   6.144   1.293   2.736  2.2672  0.2636  0.4138
  115DOPC   H4Y15829   6.250   1.149   2.729  0.8466 -0.5835  0.2150
  115DOPC   C3515830   6.137   1.143   2.909 -0.0338  0.1626 -0.1248
  115DOPC   H5X15831   6.147   1.032   2.915  2.5779  0.4035  1.6434
  115DOPC   H5Y15832   6.037   1.171   2.947 -0.3154  1.8105 -1.9746
  115DOPC   C3615833   6.238   1.204   3.007 -0.4335 -0.4207  0.6865
  115DOPC   H6X15834   6.342   1.210   2.968  0.6710 -0.2712  3.4415
  115DOPC   H6Y15835   6.203   1.309   3.017  2.1244  0.4465  1.4225
  115DOPC   C3715836   6.249   1.138   3.150  0.0474  0.6305  0.6305
  115DOPC   H7X15837   6.154   1.147   3.205 -1.2501 -2.3059 -0.8905
  115DOPC   H7Y15838   6.261   1.028   3.134 -0.8218  0.5657  0.3875
  115DOPC   C3815839   6.358   1.195   3.247  0.3649  0.5424  0.2956
  115DOPC   H8X15840   6.447   1.183   3.180 -0.5353 -0.3666 -0.7901
  115DOPC   H8Y15841   6.366   1.122   3.330 -0.7694 -0.6752 -0.6150
  115DOPC   C3915842   6.331   1.335   3.292 -0.1726  0.5583  0.5868
  115DOPC   H9X15843   6.277   1.394   3.216  0.1305 -0.8349 -0.7779
  115DOPC  C31015844   6.370   1.389   3.411 -1.0385  0.1540  0.0190
  115DOPC  H10X15845   6.340   1.492   3.434  1.3473  0.5670  1.6107
  115DOPC  C31115846   6.446   1.321   3.517 -0.0928  0.6632  1.0241
  115DOPC  H11X15847   6.480   1.224   3.476 -0.7889  0.9241 -0.2059
  115DOPC  H11Y15848   6.387   1.297   3.608 -0.7812 -2.0310 -0.0491
  115DOPC  C31215849   6.566   1.402   3.570 -0.5358  0.6872 -0.6042
  115DOPC  H12X15850   6.529   1.502   3.598 -2.0611  0.5249 -1.8893
  115DOPC  H12Y15851   6.637   1.423   3.487  1.3620  0.0587  0.7845
  115DOPC  C31315852   6.650   1.327   3.685 -0.5553  0.2116  0.7207
  115DOPC  H13X15853   6.671   1.223   3.652  3.4831  0.3723  2.1414
  115DOPC  H13Y15854   6.754   1.368   3.690 -0.8833  1.0231  1.0704
  115DOPC  C31415855   6.585   1.331   3.824  0.3070 -0.0788  0.1464
  115DOPC  H14X15856   6.576   1.435   3.862  2.4956  0.0986  0.3053
  115DOPC  H14Y15857   6.483   1.287   3.820  0.6635 -0.8758 -0.2993
  115DOPC  C31515858   6.665   1.262   3.936 -0.1936 -0.2090  0.3400
  115DOPC  H15X15859   6.627   1.308   4.030 -0.9807 -0.1910  0.0223
  115DOPC  H15Y15860   6.765   1.308   3.925 -0.6248  0.5882 -0.4001
  115DOPC  C31615861   6.651   1.111   3.952 -0.1985  0.0967 -0.4468
  115DOPC  H16X15862   6.559   1.091   4.011  0.8020  0.1286  1.1605
  115DOPC  H16Y15863   6.634   1.067   3.851 -0.2897  0.7825 -0.7377
  115DOPC  C31715864   6.786   1.053   4.014 -0.1612  0.1639  1.4666
  115DOPC  H17X15865   6.784   0.949   3.977 -0.4588  1.5280 -2.9078
  115DOPC  H17Y15866   6.869   1.110   3.967 -2.2868  1.4641 -0.9543
  115DOPC  C31815867   6.794   1.077   4.164 -0.1179 -0.0306 -0.5443
  115DOPC  H18X15868   6.692   1.055   4.204 -0.6699  0.2013 -1.7741
  115DOPC  H18Y15869   6.876   1.021   4.212  0.4503  0.4393 -0.9598
  115DOPC  H18Z15870   6.808   1.185   4.184  1.1055  0.0152 -1.5126
  116DOPC     N15871   3.272   1.675   1.894  0.4339 -0.5440 -0.0134
  116DOPC   C1215872   3.222   1.810   1.958 -0.1916  0.5720  0.5749
  116DOPC  H12A15873   3.134   1.795   2.018  2.0903 -1.1128  3.7945
  116DOPC  H12B15874   3.196   1.873   1.874  0.6649 -1.1606 -1.0796
  116DOPC   C1315875   3.161   1.632   1.811 -0.0929  0.3307  0.1261
  116DOPC  H13A15876   3.065   1.624   1.859  0.1221 -2.7864  0.2608
  116DOPC  H13B15877   3.156   1.699   1.726 -1.0787 -1.0638 -0.9550
  116DOPC  H13C15878   3.162   1.529   1.780  1.5941  1.6567 -5.5648
  116DOPC   C1415879   3.288   1.575   2.012  0.4146  0.3854  0.2933
  116DOPC  H14A15880   3.189   1.558   2.053  0.1903  0.2615 -0.2946
  116DOPC  H14B15881   3.330   1.483   1.973  0.0572 -0.4511  1.7870
  116DOPC  H14C15882   3.339   1.634   2.086  0.6217  1.6458 -0.8215
  116DOPC   C1515883   3.400   1.691   1.817 -0.1454 -0.1732 -0.0299
  116DOPC  H15A15884   3.401   1.773   1.747 -1.5008  0.2488  0.4132
  116DOPC  H15B15885   3.432   1.600   1.770  2.1565 -0.4315  1.8374
  116DOPC  H15C15886   3.478   1.714   1.889  0.9464 -1.3163 -0.8130
  116DOPC   C1115887   3.322   1.886   2.041 -0.7498  0.5809 -0.4259
  116DOPC  H11A15888   3.377   1.821   2.114 -1.3544 -1.6511 -1.8445
  116DOPC  H11B15889   3.407   1.920   1.978  1.3895 -3.1004  0.1285
  116DOPC     P15890   3.176   1.968   2.243  0.0662 -0.5261 -0.0518
  116DOPC   O1315891   3.088   1.850   2.238 -0.2733  0.1606 -0.2137
  116DOPC   O1415892   3.099   2.090   2.277  0.0557  0.3477  0.2827
  116DOPC   O1215893   3.259   1.992   2.105 -0.3966 -0.1386 -0.1404
  116DOPC   O1115894   3.287   1.947   2.350  0.1348 -0.3115 -0.1440
  116DOPC    C115895   3.355   1.828   2.375  0.2379  0.2315  0.3053
  116DOPC    HA15896   3.464   1.848   2.359 -0.4297  1.3884 -4.2094
  116DOPC    HB15897   3.336   1.743   2.306  1.9005 -0.4310  0.6006
  116DOPC    C215898   3.313   1.792   2.520 -0.6520  0.6921 -0.8651
  116DOPC    HS15899   3.306   1.885   2.580  0.9036  1.1604 -1.3707
  116DOPC   O2115900   3.412   1.704   2.580 -0.2458  0.8164 -0.0346
  116DOPC   C2115901   3.525   1.771   2.593  0.4348  0.1332 -0.4078
  116DOPC   O2215902   3.536   1.890   2.603 -0.2971  0.2771 -0.3521
  116DOPC   C2215903   3.627   1.667   2.616  0.3808  0.4116 -0.1972
  116DOPC   H2R15904   3.673   1.639   2.518 -1.1645 -0.8646 -0.5989
  116DOPC   H2S15905   3.586   1.575   2.663  0.9096  0.6874  0.8170
  116DOPC    C315906   3.170   1.722   2.538  0.5520 -0.8657 -0.8271
  116DOPC    HX15907   3.159   1.638   2.467  0.5405 -0.3961 -1.3863
  116DOPC    HY15908   3.107   1.806   2.501  0.0880  0.3795  2.4085
  116DOPC   O3115909   3.138   1.691   2.671 -0.2851  0.2076 -0.2994
  116DOPC   C3115910   3.027   1.624   2.693  0.1987  1.0484  0.0177
  116DOPC   O3215911   2.962   1.578   2.604 -0.0037 -0.4061  0.1577
  116DOPC   C3215912   2.988   1.621   2.842 -0.1133  0.1604 -0.4090
  116DOPC   H2X15913   2.943   1.521   2.855 -2.9246  1.1699 -1.6247
  116DOPC   H2Y15914   3.081   1.638   2.901 -0.5879  1.0934  0.0895
  116DOPC   C2315915   3.748   1.713   2.701  0.2493  0.2053 -0.1849
  116DOPC   H3R15916   3.801   1.807   2.675  1.8581 -0.6350 -0.0639
  116DOPC   H3S15917   3.821   1.631   2.690 -0.0707 -0.0381 -0.5350
  116DOPC   C2415918   3.712   1.700   2.853  0.6952 -0.6328 -0.2895
  116DOPC   H4R15919   3.674   1.598   2.872  1.5495 -0.7109  1.1568
  116DOPC   H4S15920   3.624   1.758   2.886  2.7140  1.5532  1.6578
  116DOPC   C2515921   3.830   1.734   2.937 -0.0440  0.3263  0.3867
  116DOPC   H5R15922   3.859   1.837   2.908 -1.8074  1.0647  1.0856
  116DOPC   H5S15923   3.923   1.679   2.909  2.0765  3.7505  0.1190
  116DOPC   C2615924   3.812   1.736   3.088  0.2084 -0.1207 -0.2450
  116DOPC   H6R15925   3.893   1.797   3.133 -0.3668  0.3182  0.2190
  116DOPC   H6S15926   3.833   1.639   3.136  1.4565  1.8828  3.7217
  116DOPC   C2715927   3.672   1.770   3.144 -0.3979 -0.8262 -0.3871
  116DOPC   H7R15928   3.682   1.749   3.253 -0.1398 -0.0894 -0.2641
  116DOPC   H7S15929   3.600   1.705   3.090  0.8276 -1.6084 -1.1444
  116DOPC   C2815930   3.620   1.917   3.114  0.1816  0.3114  0.0012
  116DOPC   H8R15931   3.633   1.947   3.008 -1.7702 -0.6105 -0.5298
  116DOPC   H8S15932   3.691   1.983   3.169  0.2510  0.6002 -0.4323
  116DOPC   C2915933   3.487   1.943   3.165  0.4465 -0.5641  0.3484
  116DOPC   H9R15934   3.482   1.943   3.275 -1.9874 -0.5664  0.2968
  116DOPC  C21015935   3.366   1.936   3.100 -0.4482 -0.2429 -0.4244
  116DOPC  H10R15936   3.271   1.965   3.147 -0.1642 -1.0570  0.6991
  116DOPC  C21115937   3.363   1.919   2.952 -0.5920  0.0776  0.8338
  116DOPC  H11R15938   3.367   1.808   2.948  1.5592  0.0973  1.1079
  116DOPC  H11S15939   3.456   1.950   2.899 -0.8428  0.9635  0.8997
  116DOPC  C21215940   3.231   1.964   2.891 -0.1830  0.1097 -0.6670
  116DOPC  H12R15941   3.145   1.917   2.942  0.2549  1.2036  1.1800
  116DOPC  H12S15942   3.229   1.937   2.783 -0.9612  1.1759 -0.9396
  116DOPC  C21315943   3.215   2.117   2.906  0.2048 -0.1738 -0.0577
  116DOPC  H13R15944   3.292   2.178   2.854 -1.3308  1.4183 -0.5684
  116DOPC  H13S15945   3.212   2.156   3.010 -1.5047 -0.2220 -0.0558
  116DOPC  C21415946   3.083   2.156   2.825  0.3464 -0.9989  0.2954
  116DOPC  H14R15947   3.054   2.255   2.865 -0.1308 -1.9076  2.3741
  116DOPC  H14S15948   3.010   2.080   2.862  1.0099  0.0925  4.3579
  116DOPC  C21515949   3.103   2.157   2.674 -0.1708  0.5047 -0.3678
  116DOPC  H15R15950   3.147   2.061   2.640  1.3120  1.1031 -0.1722
  116DOPC  H15S15951   3.175   2.237   2.648  2.0249 -1.4199 -0.5404
  116DOPC  C21615952   2.968   2.181   2.608 -0.1247  0.0352 -0.3895
  116DOPC  H16R15953   2.977   2.228   2.508  3.5879  0.0504 -0.1707
  116DOPC  H16S15954   2.915   2.254   2.672 -0.3999 -0.3378 -0.1857
  116DOPC  C21715955   2.892   2.053   2.573 -0.0961  0.5260  0.4591
  116DOPC  H17R15956   2.877   1.983   2.657 -0.0896  0.0194  0.0469
  116DOPC  H17S15957   2.947   2.004   2.489 -0.7612  0.2604  0.1778
  116DOPC  C21815958   2.754   2.091   2.525  0.1323  0.3579 -0.9545
  116DOPC  H18R15959   2.754   2.191   2.476 -2.7586  2.9759  3.6932
  116DOPC  H18S15960   2.678   2.102   2.604 -3.5085 -1.2482 -3.9251
  116DOPC  H18T15961   2.733   2.014   2.447 -0.2767 -0.1994 -0.3036
  116DOPC   C3315962   2.879   1.726   2.876 -0.2357 -0.3571 -0.3103
  116DOPC   H3X15963   2.801   1.718   2.797  2.3477 -1.7718 -2.8821
  116DOPC   H3Y15964   2.926   1.826   2.884 -2.0191  0.3886  2.0364
  116DOPC   C3415965   2.816   1.694   3.013 -1.2168  0.1284  0.5208
  116DOPC   H4X15966   2.902   1.661   3.075 -1.0737 -0.6530 -0.0863
  116DOPC   H4Y15967   2.741   1.613   3.009  0.9618 -1.9544 -0.6143
  116DOPC   C3515968   2.764   1.826   3.061 -1.1025 -0.3541 -0.3238
  116DOPC   H5X15969   2.704   1.863   2.976  0.3998 -2.3442 -2.3690
  116DOPC   H5Y15970   2.840   1.906   3.071 -1.3171 -0.3017  1.1910
  116DOPC   C3615971   2.698   1.824   3.198 -0.4047 -0.7305 -0.2534
  116DOPC   H6X15972   2.652   1.723   3.208 -2.2346  0.1136  0.2393
  116DOPC   H6Y15973   2.771   1.834   3.280 -1.6309 -1.0307  0.9107
  116DOPC   C3715974   2.579   1.929   3.203  0.3532  1.0613 -0.1248
  116DOPC   H7X15975   2.619   2.033   3.205  2.6915  0.2504 -1.2341
  116DOPC   H7Y15976   2.528   1.910   3.106  0.4838  1.3956 -0.2603
  116DOPC   C3815977   2.467   1.905   3.306 -0.5664  0.2601  0.5503
  116DOPC   H8X15978   2.419   1.807   3.289  3.7818 -1.5135 -3.9519
  116DOPC   H8Y15979   2.393   1.988   3.311 -0.6313  0.3075 -0.8631
  116DOPC   C3915980   2.544   1.903   3.437 -0.2478 -0.0551 -0.1197
  116DOPC   H9X15981   2.635   1.964   3.437  0.0271 -0.4631 -0.6350
  116DOPC  C31015982   2.519   1.820   3.542 -0.4641  0.5540 -0.0196
  116DOPC  H10X15983   2.590   1.821   3.626  0.3651 -1.4806 -0.6300
  116DOPC  C31115984   2.398   1.730   3.558  0.6575  0.2103 -0.3510
  116DOPC  H11X15985   2.416   1.621   3.571 -0.7939 -0.3090 -2.2242
  116DOPC  H11Y15986   2.333   1.748   3.470  1.0677 -0.5897 -0.8233
  116DOPC  C31215987   2.321   1.765   3.677 -0.2168 -0.8159  0.4023
  116DOPC  H12X15988   2.215   1.733   3.673 -1.2726  2.4804 -0.7497
  116DOPC  H12Y15989   2.300   1.873   3.686 -2.2071 -1.1843  0.5474
  116DOPC  C31315990   2.384   1.708   3.803 -0.4361 -0.0875  0.0665
  116DOPC  H13X15991   2.314   1.667   3.879 -1.0118  0.3666 -0.2115
  116DOPC  H13Y15992   2.452   1.621   3.789  0.0785  0.2149  0.6375
  116DOPC  C31415993   2.466   1.817   3.882  0.4401  0.3341 -0.6440
  116DOPC  H14X15994   2.556   1.774   3.932 -0.2469 -1.5095 -0.8944
  116DOPC  H14Y15995   2.501   1.895   3.812  1.1714  0.9866  0.4069
  116DOPC  C31515996   2.382   1.885   3.999 -0.1180  0.2236 -0.3403
  116DOPC  H15X15997   2.323   1.808   4.053  0.0054  0.0033 -0.5120
  116DOPC  H15Y15998   2.311   1.954   3.949  0.7846  2.6682  1.5861
  116DOPC  C31615999   2.462   1.977   4.092  0.1675  0.1171  0.1347
  116DOPC  H16X16000   2.404   2.011   4.180 -0.3608  0.1148 -0.2092
  116DOPC  H16Y16001   2.549   1.924   4.138 -1.1207 -0.4947  1.9672
  116DOPC  C31716002   2.505   2.109   4.017 -0.0279  0.2741 -0.1960
  116DOPC  H17X16003   2.441   2.112   3.927 -3.8241  1.0794  2.2830
  116DOPC  H17Y16004   2.487   2.197   4.083 -2.5719 -0.8435  0.7417
  116DOPC  C31816005   2.646   2.102   3.968  0.6121  0.1060  0.2782
  116DOPC  H18X16006   2.663   2.188   3.900 -1.6235 -1.5460 -2.5937
  116DOPC  H18Y16007   2.726   2.097   4.045  1.2483  0.4264 -0.3481
  116DOPC  H18Z16008   2.659   2.014   3.902 -1.3949 -0.9834  1.2589
  117DOPC     N16009   0.787   3.450   1.992  0.4432  0.6834  0.3755
  117DOPC   C1216010   0.819   3.428   2.143  0.4532 -0.1468  0.4127
  117DOPC  H12A16011   0.900   3.494   2.171  1.3895 -0.8473 -0.5928
  117DOPC  H12B16012   0.852   3.326   2.155  1.6887  0.0488 -1.0379
  117DOPC   C1316013   0.899   3.400   1.909 -0.1480  0.4446 -0.8488
  117DOPC  H13A16014   0.872   3.407   1.805  0.9067 -1.1623 -1.2668
  117DOPC  H13B16015   0.997   3.441   1.924  0.0694 -0.2562 -0.3156
  117DOPC  H13C16016   0.910   3.295   1.932 -3.0219  0.1976 -0.1696
  117DOPC   C1416017   0.767   3.592   1.961  0.3499 -0.8677  0.0451
  117DOPC  H14A16018   0.739   3.612   1.858  0.7101 -0.5444  0.0090
  117DOPC  H14B16019   0.681   3.626   2.016 -0.6107  0.8322 -2.3349
  117DOPC  H14C16020   0.853   3.657   1.971  0.4889 -1.0794  0.2245
  117DOPC   C1516021   0.666   3.367   1.952 -0.0418  0.3239 -0.4019
  117DOPC  H15A16022   0.694   3.263   1.953 -0.7414  0.0810 -2.0528
  117DOPC  H15B16023   0.623   3.386   1.854 -1.9722 -1.4488  0.0199
  117DOPC  H15C16024   0.588   3.392   2.022  0.1400  3.0259 -1.0252
  117DOPC   C1116025   0.702   3.451   2.241  0.3436  0.5791 -0.3266
  117DOPC  H11A16026   0.614   3.384   2.227  0.5226 -0.3026  2.1829
  117DOPC  H11B16027   0.752   3.417   2.334  2.7429 -2.3520 -2.4812
  117DOPC     P16028   0.756   3.707   2.285 -0.3441  0.8738  0.4940
  117DOPC   O1316029   0.702   3.835   2.228 -0.5905  0.3230  0.1924
  117DOPC   O1416030   0.900   3.682   2.256 -0.0754  0.1090  0.0959
  117DOPC   O1216031   0.660   3.588   2.242  0.3129 -0.3437 -0.0649
  117DOPC   O1116032   0.727   3.713   2.441  0.4108  0.2479  0.2585
  117DOPC    C116033   0.598   3.697   2.502 -0.4825 -0.0378  0.1355
  117DOPC    HA16034   0.554   3.599   2.473  0.8126 -0.7712  0.5393
  117DOPC    HB16035   0.534   3.785   2.482  1.3790  0.9053 -2.1196
  117DOPC    C216036   0.605   3.686   2.655 -0.3974  0.8768 -0.9317
  117DOPC    HS16037   0.501   3.695   2.691  0.6128 -1.7453  3.4430
  117DOPC   O2116038   0.688   3.783   2.721 -0.3208  0.0761 -0.0379
  117DOPC   C2116039   0.639   3.904   2.725  0.1173  0.5321  0.3436
  117DOPC   O2216040   0.524   3.936   2.688 -0.7661  0.3207 -0.0351
  117DOPC   C2216041   0.742   4.003   2.765 -0.4043  1.3388  0.1981
  117DOPC   H2R16042   0.770   4.062   2.675  0.0466  0.9218  0.0614
  117DOPC   H2S16043   0.829   3.946   2.804 -2.2715 -1.2635  0.8139
  117DOPC    C316044   0.654   3.536   2.696  0.3703  0.2572  0.8812
  117DOPC    HX16045   0.746   3.505   2.642 -0.7583 -1.3632 -0.2076
  117DOPC    HY16046   0.577   3.463   2.662 -1.2033  1.5150  1.6293
  117DOPC   O3116047   0.663   3.522   2.838  0.0379  0.2714 -0.1227
  117DOPC   C3116048   0.775   3.536   2.906  0.2933 -0.2475  0.0895
  117DOPC   O3216049   0.881   3.520   2.853 -0.1924 -0.3041  0.3328
  117DOPC   C3216050   0.742   3.579   3.049  0.3162 -0.2338  0.0704
  117DOPC   H2X16051   0.825   3.535   3.108  1.8735  0.2927 -1.6105
  117DOPC   H2Y16052   0.754   3.690   3.044  1.2840 -0.3444 -0.2098
  117DOPC   C2316053   0.686   4.104   2.860  0.2087 -0.4377 -0.2507
  117DOPC   H3R16054   0.581   4.128   2.837  0.1980  0.4123  0.6374
  117DOPC   H3S16055   0.740   4.201   2.857 -0.2420 -0.0362  2.2131
  117DOPC   C2416056   0.695   4.050   3.003 -0.6321 -0.0677 -0.0135
  117DOPC   H4R16057   0.800   4.054   3.037 -0.2623  1.4788 -1.2159
  117DOPC   H4S16058   0.657   3.946   2.999 -0.8346 -0.0072  0.2855
  117DOPC   C2516059   0.612   4.132   3.102  0.0934  0.2521 -1.1792
  117DOPC   H5R16060   0.628   4.240   3.081 -0.0877  0.5773  0.2331
  117DOPC   H5S16061   0.638   4.104   3.206 -1.9607  0.7424 -0.4746
  117DOPC   C2616062   0.464   4.080   3.082 -0.3347 -0.3049  0.1393
  117DOPC   H6R16063   0.482   3.975   3.112  0.8661 -0.4987 -1.1587
  117DOPC   H6S16064   0.431   4.080   2.976  1.7571 -2.8327 -0.6065
  117DOPC   C2716065   0.362   4.128   3.186  0.3566  0.1320 -0.5995
  117DOPC   H7R16066   0.345   4.238   3.183 -0.3886  0.0247 -0.4147
  117DOPC   H7S16067   0.393   4.111   3.292 -1.4388 -2.5500 -0.4360
  117DOPC   C2816068   0.222   4.066   3.188  0.6421  0.7749  0.7908
  117DOPC   H8R16069   0.164   4.079   3.094  2.9928  0.9514 -0.7224
  117DOPC   H8S16070   0.171   4.109   3.276  2.7972  0.3513  2.3336
  117DOPC   C2916071   0.242   3.918   3.201  0.0533 -0.2092 -0.2986
  117DOPC   H9R16072   0.308   3.874   3.125  0.6095 -1.3879  0.8133
  117DOPC  C21016073   0.210   3.842   3.310 -0.0391 -0.1545  0.2436
  117DOPC  H10R16074   0.248   3.739   3.310 -1.6365 -0.8384  2.8649
  117DOPC  C21116075   0.137   3.878   3.437  0.3571 -0.7022  0.6343
  117DOPC  H11R16076   0.037   3.830   3.440 -0.2835  0.5205 -0.2992
  117DOPC  H11S16077   0.107   3.985   3.426  1.1206 -0.6544 -1.4523
  117DOPC  C21216078   0.220   3.840   3.566 -0.1828  0.3562 -0.0866
  117DOPC  H12R16079   0.311   3.903   3.561 -0.9249  1.3774 -4.0108
  117DOPC  H12S16080   0.233   3.730   3.560 -2.5221 -0.2787  3.3070
  117DOPC  C21316081   0.137   3.874   3.693 -0.6554 -0.4213  0.0262
  117DOPC  H13R16082   0.191   3.833   3.781 -0.0541 -0.0698 -0.1747
  117DOPC  H13S16083   0.040   3.821   3.685 -1.8276  1.6579 -0.3088
  117DOPC  C21416084   0.126   4.022   3.728  0.9536  0.1433 -0.5575
  117DOPC  H14R16085   0.050   4.059   3.657 -0.0963  1.2336  1.0714
  117DOPC  H14S16086   0.221   4.079   3.723  1.0432  0.2996  1.7993
  117DOPC  C21516087   0.066   4.041   3.865 -0.1408 -0.4491 -0.3539
  117DOPC  H15R16088   0.139   4.003   3.940 -0.4448 -1.6847 -0.6571
  117DOPC  H15S16089  -0.032   3.990   3.881 -0.6734  0.0667 -1.7810
  117DOPC  C21616090   0.043   4.192   3.888  0.3378  0.3401  0.0864
  117DOPC  H16R16091  -0.044   4.216   3.823  0.0975  0.7948  0.5713
  117DOPC  H16S16092   0.129   4.262   3.876 -0.9886  1.9322 -0.5073
  117DOPC  C21716093  -0.003   4.210   4.029 -0.3727 -0.6244 -0.0261
  117DOPC  H17R16094   0.086   4.196   4.094 -0.1330 -3.4329 -0.8138
  117DOPC  H17S16095  -0.064   4.125   4.067  1.0456 -0.8383  1.9297
  117DOPC  C21816096  -0.073   4.346   4.044  0.0100 -1.0591 -0.0166
  117DOPC  H18R16097  -0.152   4.368   3.969 -1.7914  0.0505  2.0749
  117DOPC  H18S16098  -0.010   4.438   4.040 -2.6587  0.8697 -0.1916
  117DOPC  H18T16099  -0.122   4.343   4.144 -1.0890 -0.0284 -0.5087
  117DOPC   C3316100   0.596   3.541   3.092 -0.5339  0.3391 -0.2386
  117DOPC   H3X16101   0.593   3.430   3.088 -1.1301  0.3355  0.1449
  117DOPC   H3Y16102   0.520   3.578   3.020 -2.0767  0.6969  1.5117
  117DOPC   C3416103   0.558   3.605   3.227  0.1495  0.9966 -0.3316
  117DOPC   H4X16104   0.453   3.580   3.253  0.9547 -1.1618  1.0913
  117DOPC   H4Y16105   0.556   3.716   3.221  1.1437  1.0940  0.8097
  117DOPC   C3516106   0.653   3.579   3.348  0.0658  0.7374  0.0374
  117DOPC   H5X16107   0.759   3.603   3.326  0.6816 -0.7746  1.1215
  117DOPC   H5Y16108   0.646   3.471   3.375 -1.4639  0.6571 -0.5971
  117DOPC   C3616109   0.613   3.653   3.476 -0.5972 -0.3586 -0.5863
  117DOPC   H6X16110   0.508   3.642   3.513 -1.2408  3.8241 -0.6790
  117DOPC   H6Y16111   0.687   3.622   3.552  2.0159  2.4346 -1.7716
  117DOPC   C3716112   0.635   3.807   3.463  0.1073 -0.1797  0.0825
  117DOPC   H7X16113   0.732   3.842   3.423  0.3051 -0.0033  0.7121
  117DOPC   H7Y16114   0.552   3.847   3.401  1.2599 -1.0018 -2.1028
  117DOPC   C3816115   0.603   3.870   3.600  0.5558 -0.4129 -0.2090
  117DOPC   H8X16116   0.504   3.825   3.625  0.7704 -1.4345 -1.0990
  117DOPC   H8Y16117   0.581   3.977   3.580  0.1774 -0.4694 -0.1117
  117DOPC   C3916118   0.718   3.847   3.700 -0.4531  0.7945  0.8763
  117DOPC   H9X16119   0.715   3.752   3.755  0.6603 -0.9086 -1.7939
  117DOPC  C31016120   0.824   3.924   3.721  0.0338 -0.2538 -0.4732
  117DOPC  H10X16121   0.903   3.887   3.787  1.2255  3.0464  0.1138
  117DOPC  C31116122   0.837   4.059   3.656 -0.2394  0.5259 -0.1586
  117DOPC  H11X16123   0.868   4.141   3.724  0.5880 -2.2088  3.0419
  117DOPC  H11Y16124   0.740   4.092   3.613 -0.8233  0.0570  0.7617
  117DOPC  C31216125   0.934   4.041   3.546  0.0571  0.1588  0.2116
  117DOPC  H12X16126   0.904   3.969   3.465 -0.1996  2.1005 -1.5094
  117DOPC  H12Y16127   1.031   4.010   3.589 -0.4033 -0.0361  1.1235
  117DOPC  C31316128   0.962   4.182   3.480  0.2044  0.4279 -0.2582
  117DOPC  H13X16129   0.866   4.236   3.462 -0.6452 -0.4892  1.3025
  117DOPC  H13Y16130   1.023   4.242   3.552  0.6294 -0.7460  0.3806
  117DOPC  C31416131   1.029   4.163   3.343  0.2301 -0.5493  0.2294
  117DOPC  H14X16132   0.948   4.123   3.279 -0.7568  0.7192  0.6381
  117DOPC  H14Y16133   1.057   4.261   3.298 -2.2337 -0.6488 -1.7332
  117DOPC  C31516134   1.141   4.063   3.339 -0.4244  0.3105  0.4767
  117DOPC  H15X16135   1.105   3.970   3.389 -2.3220  0.8519  0.1888
  117DOPC  H15Y16136   1.228   4.099   3.398 -0.2557 -2.5460  2.1390
  117DOPC  C31616137   1.205   4.033   3.202 -0.0669 -0.6719 -0.0526
  117DOPC  H16X16138   1.202   4.130   3.147  1.6227 -0.2825  0.4951
  117DOPC  H16Y16139   1.306   3.986   3.206 -0.3148 -1.1286  1.9791
  117DOPC  C31716140   1.116   3.936   3.120  0.2923 -0.1819 -0.2093
  117DOPC  H17X16141   1.097   3.843   3.178  0.7675 -0.5408 -0.6120
  117DOPC  H17Y16142   1.020   3.986   3.095  1.6146  3.0662  0.6944
  117DOPC  C31816143   1.174   3.893   2.987 -0.0721 -0.4743 -0.5184
  117DOPC  H18X16144   1.115   3.811   2.942 -0.1412 -1.8794  1.9570
  117DOPC  H18Y16145   1.195   3.978   2.918  2.6706  0.2714  1.0653
  117DOPC  H18Z16146   1.274   3.849   3.007 -0.0686 -0.3527 -0.2533
  118DOPC     N16147   5.596   6.389   1.590  0.8499 -0.2792 -0.1864
  118DOPC   C1216148   5.479   6.310   1.646  0.0712  1.1906  0.4439
  118DOPC  H12A16149   5.487   6.289   1.752  1.5568  0.4002  0.2079
  118DOPC  H12B16150   5.477   6.209   1.607 -0.1104  1.6427 -0.7382
  118DOPC   C1316151   5.726   6.309   1.590 -0.5798 -0.0856 -0.9963
  118DOPC  H13A16152   5.803   6.375   1.554  0.8965 -2.7160 -2.9196
  118DOPC  H13B16153   5.740   6.265   1.688 -0.9236  0.7516 -0.5557
  118DOPC  H13C16154   5.741   6.222   1.529  2.5031  0.5857 -1.3514
  118DOPC   C1416155   5.615   6.507   1.671 -0.6765  0.5560  0.4456
  118DOPC  H14A16156   5.529   6.573   1.662 -0.7104  0.3473 -0.8936
  118DOPC  H14B16157   5.616   6.478   1.775 -2.8497 -1.1909  0.0659
  118DOPC  H14C16158   5.708   6.555   1.645  0.2192  0.2543  2.8297
  118DOPC   C1516159   5.569   6.423   1.446 -0.0386 -0.2725 -0.5175
  118DOPC  H15A16160   5.554   6.331   1.390 -0.3280 -0.7053  0.2656
  118DOPC  H15B16161   5.648   6.483   1.403  1.2559  0.3391  2.4871
  118DOPC  H15C16162   5.477   6.474   1.426 -0.4153 -0.3541  0.9268
  118DOPC   C1116163   5.331   6.359   1.637  0.2254  0.5356  0.2619
  118DOPC  H11A16164   5.308   6.387   1.532  1.0317 -1.6154 -0.5433
  118DOPC  H11B16165   5.262   6.278   1.669  3.1089 -1.3745  2.0513
  118DOPC     P16166   5.263   6.426   1.876  0.0329 -0.1696  0.3437
  118DOPC   O1316167   5.130   6.360   1.872  0.3534 -0.6432 -0.2754
  118DOPC   O1416168   5.268   6.544   1.959 -0.2698  0.2016 -0.1171
  118DOPC   O1216169   5.306   6.469   1.733 -0.1174  0.5070  0.4553
  118DOPC   O1116170   5.378   6.325   1.914 -0.4529 -0.0064  0.3248
  118DOPC    C116171   5.349   6.184   1.946 -0.2626  0.1134 -0.4049
  118DOPC    HA16172   5.438   6.121   1.927  0.3696  1.2416 -1.3352
  118DOPC    HB16173   5.267   6.132   1.891 -0.5258 -0.8265  0.8477
  118DOPC    C216174   5.310   6.174   2.097 -0.8137  0.5521 -0.6956
  118DOPC    HS16175   5.221   6.238   2.116 -2.0937 -1.0230 -1.1545
  118DOPC   O2116176   5.435   6.212   2.169 -0.0906 -0.1794  0.0433
  118DOPC   C2116177   5.412   6.264   2.287 -0.4153  0.6166  0.7268
  118DOPC   O2216178   5.306   6.301   2.321  0.0074 -0.1147 -0.0464
  118DOPC   C2216179   5.544   6.276   2.373  0.2331 -0.6720  0.3372
  118DOPC   H2R16180   5.519   6.352   2.450  0.8838  0.0578 -0.1586
  118DOPC   H2S16181   5.617   6.322   2.304  0.5735  0.6437  1.5220
  118DOPC    C316182   5.267   6.026   2.120  0.2196 -0.2146 -0.0088
  118DOPC    HX16183   5.352   5.964   2.085 -0.8106 -0.8704 -1.4679
  118DOPC    HY16184   5.180   6.007   2.053  0.1117 -1.9878  0.6062
  118DOPC   O3116185   5.244   6.000   2.260 -0.5024  0.5353  0.1388
  118DOPC   C3116186   5.121   6.046   2.296  0.6904 -0.3479  0.4079
  118DOPC   O3216187   5.037   6.085   2.213 -0.0930  0.1445  0.0572
  118DOPC   C3216188   5.099   6.015   2.443  1.0387 -0.4815 -0.1023
  118DOPC   H2X16189   5.031   5.927   2.452 -1.0582  1.2432  2.6936
  118DOPC   H2Y16190   5.193   5.999   2.500 -0.8696 -1.5449  3.0204
  118DOPC   C2316191   5.610   6.143   2.427  0.7124  0.1568 -0.0128
  118DOPC   H3R16192   5.719   6.162   2.435  0.6384 -0.0856  2.3101
  118DOPC   H3S16193   5.582   6.061   2.358  0.6489  1.0241 -1.0468
  118DOPC   C2416194   5.576   6.111   2.575  1.0143 -0.8332  0.5605
  118DOPC   H4R16195   5.465   6.112   2.577  0.9496 -0.1067 -1.1530
  118DOPC   H4S16196   5.608   6.195   2.640  0.9767 -0.4427  0.0828
  118DOPC   C2516197   5.619   5.967   2.618  0.1503 -0.5400  0.3426
  118DOPC   H5R16198   5.729   5.953   2.621  0.4087  1.0237 -0.6355
  118DOPC   H5S16199   5.574   5.895   2.547 -0.5409 -0.1980  0.4174
  118DOPC   C2616200   5.557   5.927   2.757 -0.0992 -0.4825  0.6928
  118DOPC   H6R16201   5.452   5.890   2.752  0.1364 -1.0176 -1.6407
  118DOPC   H6S16202   5.558   6.019   2.819 -0.8359 -0.0826  0.1264
  118DOPC   C2716203   5.641   5.818   2.821  0.2400  0.7469 -0.1427
  118DOPC   H7R16204   5.749   5.842   2.836  1.0428 -1.3863 -1.9575
  118DOPC   H7S16205   5.642   5.734   2.748 -0.5025  1.0698 -0.5357
  118DOPC   C2816206   5.583   5.775   2.955  0.2315 -0.2526  0.0454
  118DOPC   H8R16207   5.487   5.729   2.923 -0.0723  1.1596 -1.1743
  118DOPC   H8S16208   5.574   5.869   3.014 -1.0953 -0.2195 -0.1622
  118DOPC   C2916209   5.664   5.668   3.020 -0.1044 -0.0704  0.0140
  118DOPC   H9R16210   5.668   5.572   2.966 -0.7065 -0.8354  1.2801
  118DOPC  C21016211   5.711   5.660   3.141 -0.0428  0.2748 -0.3874
  118DOPC  H10R16212   5.794   5.589   3.159 -0.4595  0.4716  2.8200
  118DOPC  C21116213   5.679   5.770   3.241 -0.0604  0.3258 -0.0780
  118DOPC  H11R16214   5.640   5.718   3.331  0.0520  0.8006  0.2474
  118DOPC  H11S16215   5.604   5.845   3.209  0.9291  1.2866 -0.2027
  118DOPC  C21216216   5.800   5.852   3.282 -0.0852  0.2003 -0.4369
  118DOPC  H12R16217   5.824   5.915   3.194 -0.1410 -1.5612 -1.7797
  118DOPC  H12S16218   5.884   5.797   3.330  0.9488 -0.0752 -2.4318
  118DOPC  C21316219   5.760   5.949   3.393 -0.5836  0.1284 -0.2950
  118DOPC  H13R16220   5.693   5.906   3.470  0.7909 -0.2612  0.7033
  118DOPC  H13S16221   5.714   6.044   3.357  0.0341 -0.1193 -1.8304
  118DOPC  C21416222   5.879   5.991   3.481  0.2508 -0.1533 -0.2936
  118DOPC  H14R16223   5.946   6.054   3.418  1.6189  0.8560  2.0281
  118DOPC  H14S16224   5.945   5.920   3.535  2.0706  2.0034  0.4664
  118DOPC  C21516225   5.823   6.078   3.598  0.5308 -0.7702  0.2808
  118DOPC  H15R16226   5.762   6.014   3.666 -0.2962 -1.2040 -0.8369
  118DOPC  H15S16227   5.745   6.144   3.555  1.2296  0.5224  0.9505
  118DOPC  C21616228   5.923   6.154   3.683 -0.3185 -0.6185 -0.1546
  118DOPC  H16R16229   6.003   6.084   3.715  1.4620  0.7203 -1.4755
  118DOPC  H16S16230   5.879   6.187   3.779 -0.8422 -0.8829 -0.2975
  118DOPC  C21716231   5.974   6.268   3.596  0.0028 -0.4553 -0.8119
  118DOPC  H17R16232   5.899   6.349   3.588  1.1151  0.6123 -0.7985
  118DOPC  H17S16233   5.986   6.238   3.490  1.5063 -1.8398 -0.3115
  118DOPC  C21816234   6.109   6.342   3.635 -0.3448  0.0794 -0.0013
  118DOPC  H18R16235   6.129   6.422   3.560  1.3879 -2.2941 -2.2721
  118DOPC  H18S16236   6.194   6.272   3.621 -1.6406 -1.1802 -2.1221
  118DOPC  H18T16237   6.115   6.386   3.736  1.1044  0.0279 -0.0409
  118DOPC   C3316238   5.030   6.137   2.502 -0.2311  0.0360 -0.1403
  118DOPC   H3X16239   4.939   6.156   2.442 -0.4643  0.4507  0.3427
  118DOPC   H3Y16240   5.097   6.225   2.501 -0.3902  0.1553 -0.9290
  118DOPC   C3416241   4.995   6.110   2.649  0.3240  0.1515  0.6538
  118DOPC   H4X16242   4.938   6.016   2.662  1.8016 -0.9662 -0.5158
  118DOPC   H4Y16243   4.926   6.193   2.676 -0.1475  0.2296 -0.7267
  118DOPC   C3516244   5.115   6.116   2.747 -0.3617 -0.9099  0.5568
  118DOPC   H5X16245   5.199   6.170   2.697 -1.7501  0.8524  0.0049
  118DOPC   H5Y16246   5.151   6.011   2.756 -1.7664 -1.2369  3.5209
  118DOPC   C3616247   5.099   6.199   2.882 -0.3876 -0.3953 -0.6771
  118DOPC   H6X16248   5.063   6.302   2.863  1.5396  0.7505  1.3921
  118DOPC   H6Y16249   5.020   6.146   2.939  0.0026 -0.8519 -0.5500
  118DOPC   C3716250   5.235   6.200   2.953  0.1877  0.4518  0.2180
  118DOPC   H7X16251   5.311   6.221   2.875  0.7261 -1.5545  0.1625
  118DOPC   H7Y16252   5.230   6.296   3.009  0.2472  1.4120 -1.3711
  118DOPC   C3816253   5.250   6.066   3.033 -0.2260 -0.3897  0.2875
  118DOPC   H8X16254   5.246   5.973   2.972  0.6075  0.8928 -1.8316
  118DOPC   H8Y16255   5.169   6.054   3.108  1.6883  0.9239  2.6976
  118DOPC   C3916256   5.373   6.068   3.110 -0.4507  0.7705  0.2851
  118DOPC   H9X16257   5.470   6.077   3.060 -0.1361  1.3586  0.9683
  118DOPC  C31016258   5.379   6.078   3.242  0.1272 -0.0462  0.1546
  118DOPC  H10X16259   5.481   6.090   3.284 -1.0107  3.2729  2.3862
  118DOPC  C31116260   5.272   6.085   3.351 -0.4500 -0.3531  1.3942
  118DOPC  H11X16261   5.181   6.037   3.310 -0.4785  2.8808 -3.0626
  118DOPC  H11Y16262   5.234   6.188   3.370 -2.4860 -1.1473  1.8823
  118DOPC  C31216263   5.329   6.033   3.480 -0.9279  0.2155  0.5799
  118DOPC  H12X16264   5.255   6.046   3.562 -0.5848 -0.6112  1.0306
  118DOPC  H12Y16265   5.406   6.108   3.509 -0.2057  0.4747 -1.8064
  118DOPC  C31316266   5.358   5.884   3.474  0.2598  0.3407  0.1962
  118DOPC  H13X16267   5.277   5.823   3.428 -0.4836  1.1598  0.3891
  118DOPC  H13Y16268   5.445   5.880   3.405  0.9174 -0.0854  1.0298
  118DOPC  C31416269   5.412   5.822   3.601  0.3087 -0.1023 -0.5069
  118DOPC  H14X16270   5.505   5.879   3.624  0.8587 -0.7001 -1.1747
  118DOPC  H14Y16271   5.336   5.835   3.681  2.2653 -0.2213  1.4728
  118DOPC  C31516272   5.468   5.678   3.586 -0.2475 -0.2589 -0.1820
  118DOPC  H15X16273   5.514   5.654   3.487  1.3243 -0.6323  0.6067
  118DOPC  H15Y16274   5.374   5.618   3.592  0.3400 -1.1787 -0.0269
  118DOPC  C31616275   5.566   5.643   3.696 -0.5417  0.0801  0.0203
  118DOPC  H16X16276   5.645   5.720   3.708  1.6327 -2.2824  1.9395
  118DOPC  H16Y16277   5.507   5.639   3.790 -0.8261  1.3679 -0.0904
  118DOPC  C31716278   5.643   5.514   3.683  0.1855 -0.1988 -0.0682
  118DOPC  H17X16279   5.569   5.432   3.700  0.7824 -0.6685  0.2944
  118DOPC  H17Y16280   5.683   5.512   3.580 -0.6034  0.1008 -0.3876
  118DOPC  C31816281   5.765   5.503   3.782 -0.3900  0.3506  0.1383
  118DOPC  H18X16282   5.831   5.415   3.765 -1.7244 -0.9021  1.1433
  118DOPC  H18Y16283   5.827   5.594   3.771  0.3204 -0.1397  0.0068
  118DOPC  H18Z16284   5.721   5.508   3.884  0.3595 -1.4023  0.5938
  119DOPC     N16285   5.796   4.107   2.178 -0.2549 -0.0868 -0.1778
  119DOPC   C1216286   5.941   4.118   2.211  0.7645  0.0276 -0.5339
  119DOPC  H12A16287   5.995   4.162   2.128  1.9217  1.2409  0.8148
  119DOPC  H12B16288   5.983   4.019   2.214  2.7756  0.3351 -6.0609
  119DOPC   C1316289   5.726   4.237   2.211  0.4147 -0.7674  1.0800
  119DOPC  H13A16290   5.618   4.241   2.216  0.4309 -1.6781  2.5351
  119DOPC  H13B16291   5.758   4.278   2.306  0.9472 -0.2496  0.6854
  119DOPC  H13C16292   5.745   4.313   2.136 -0.6200  1.3331  2.8295
  119DOPC   C1416293   5.740   3.993   2.263  0.0971  0.2627  0.2019
  119DOPC  H14A16294   5.634   3.971   2.263  0.3184 -0.8335  0.3038
  119DOPC  H14B16295   5.796   3.901   2.258  0.3585  0.3586  1.1727
  119DOPC  H14C16296   5.763   4.015   2.366  1.0368 -4.0696  1.1091
  119DOPC   C1516297   5.776   4.074   2.032 -0.4167  0.0822  0.0960
  119DOPC  H15A16298   5.811   4.152   1.967 -1.1304 -0.1391 -0.5663
  119DOPC  H15B16299   5.669   4.065   2.018 -0.0586 -2.4551 -1.6668
  119DOPC  H15C16300   5.826   3.986   1.995  0.3089  0.8064 -0.6655
  119DOPC   C1116301   5.986   4.199   2.333 -0.0549  0.7116  0.9538
  119DOPC  H11A16302   5.920   4.178   2.421 -0.8867 -0.2148  0.1307
  119DOPC  H11B16303   6.093   4.177   2.355 -0.1569  1.2909  2.1180
  119DOPC     P16304   6.093   4.421   2.250  0.0725  0.3248  0.0772
  119DOPC   O1316305   6.041   4.556   2.238  0.3530  0.6395  0.2191
  119DOPC   O1416306   6.144   4.360   2.122  0.2245  0.4280  0.5181
  119DOPC   O1216307   5.974   4.339   2.311  0.1718 -0.2911  0.1269
  119DOPC   O1116308   6.202   4.405   2.359 -0.5100 -0.8380 -0.3867
  119DOPC    C116309   6.182   4.464   2.487  0.5336  0.2299  0.2670
  119DOPC    HA16310   6.075   4.472   2.515 -0.1099 -1.5775 -1.4798
  119DOPC    HB16311   6.229   4.565   2.484 -2.4597  1.7093  0.3104
  119DOPC    C216312   6.252   4.381   2.588  0.0466 -0.2972  0.0447
  119DOPC    HS16313   6.230   4.275   2.566  0.5750 -0.2650 -0.6914
  119DOPC   O2116314   6.188   4.414   2.715  0.2738 -0.1397 -0.0977
  119DOPC   C2116315   6.232   4.344   2.814 -0.0520  0.0829  0.1099
  119DOPC   O2216316   6.290   4.237   2.809  0.3976  0.2243 -0.4719
  119DOPC   C2216317   6.199   4.416   2.950 -0.7633 -0.5636  0.4830
  119DOPC   H2R16318   6.144   4.510   2.926  0.5826 -0.0238 -0.6505
  119DOPC   H2S16319   6.295   4.452   2.993 -1.0980  1.3158 -0.2354
  119DOPC    C316320   6.411   4.393   2.591  0.6584  0.4031  0.4567
  119DOPC    HX16321   6.448   4.414   2.488 -0.0550  0.1517  0.1401
  119DOPC    HY16322   6.449   4.292   2.615 -1.3529 -0.7569 -0.9425
  119DOPC   O3116323   6.457   4.489   2.687  0.5172 -0.7527  0.2545
  119DOPC   C3116324   6.467   4.611   2.636 -0.4966  0.0950  0.1915
  119DOPC   O3216325   6.441   4.641   2.522  1.0586  0.2606 -0.1014
  119DOPC   C3216326   6.522   4.712   2.735 -0.6144  0.0038  0.3937
  119DOPC   H2X16327   6.460   4.804   2.747 -1.5062 -0.3635 -1.2172
  119DOPC   H2Y16328   6.522   4.671   2.839 -0.5086 -0.7511  0.0974
  119DOPC   C2316329   6.123   4.339   3.063  0.5120  0.3473 -0.5541
  119DOPC   H3R16330   6.168   4.238   3.069  1.3140  0.7607  0.6728
  119DOPC   H3S16331   6.017   4.330   3.032  0.2786 -1.3480  0.6313
  119DOPC   C2416332   6.112   4.396   3.206 -0.4013 -0.0924 -0.2507
  119DOPC   H4R16333   6.107   4.507   3.199 -1.8778 -0.2191 -1.7428
  119DOPC   H4S16334   6.204   4.369   3.262 -1.5026 -1.0334  1.1597
  119DOPC   C2516335   5.984   4.357   3.286 -0.0504  0.6828  0.9215
  119DOPC   H5R16336   5.976   4.246   3.292  0.6747  0.6422  1.1971
  119DOPC   H5S16337   5.894   4.387   3.228 -2.2243 -2.7084  2.1944
  119DOPC   C2616338   6.005   4.405   3.427  0.2828  0.2113  0.1651
  119DOPC   H6R16339   6.026   4.513   3.412  2.5952 -0.2916 -0.7161
  119DOPC   H6S16340   6.095   4.354   3.468 -0.5269 -0.1302  1.6081
  119DOPC   C2716341   5.887   4.377   3.531 -0.5255  0.0411 -0.1000
  119DOPC   H7R16342   5.881   4.267   3.546 -0.2306  0.0797  0.3117
  119DOPC   H7S16343   5.792   4.412   3.486  0.1726 -0.6969 -2.2836
  119DOPC   C2816344   5.901   4.458   3.667 -0.0223  0.0499  0.3174
  119DOPC   H8R16345   6.005   4.453   3.707  0.1917  2.9782  0.3807
  119DOPC   H8S16346   5.830   4.408   3.736  0.3253  0.1061  0.7235
  119DOPC   C2916347   5.866   4.605   3.641  0.0917  0.1753  0.2940
  119DOPC   H9R16348   5.838   4.626   3.537  0.7467 -0.0697  0.0635
  119DOPC  C21016349   5.858   4.691   3.743  0.0260 -0.3058  0.9159
  119DOPC  H10R16350   5.824   4.794   3.728  1.2895  0.2031  1.4520
  119DOPC  C21116351   5.897   4.672   3.888 -0.2068 -0.7801 -0.3206
  119DOPC  H11R16352   5.962   4.756   3.918 -0.0606 -1.0975  0.2658
  119DOPC  H11S16353   5.955   4.577   3.897 -0.3864 -0.6543  4.5584
  119DOPC  C21216354   5.776   4.656   3.988 -0.4768 -0.1823 -0.7381
  119DOPC  H12R16355   5.720   4.570   3.947  1.8330 -2.1537 -0.0011
  119DOPC  H12S16356   5.715   4.749   3.987  0.0077  0.1691  0.4701
  119DOPC  C21316357   5.818   4.628   4.135 -0.4767 -0.4043 -0.8577
  119DOPC  H13R16358   5.897   4.699   4.170 -1.0055  0.3247 -1.1087
  119DOPC  H13S16359   5.855   4.525   4.153 -1.7904 -0.7515 -0.0442
  119DOPC  C21416360   5.691   4.650   4.231  0.0197  0.6389 -0.1738
  119DOPC  H14R16361   5.598   4.596   4.203 -0.0357  1.4580 -1.6586
  119DOPC  H14S16362   5.661   4.756   4.218  0.6235  0.8928  0.4542
  119DOPC  C21516363   5.713   4.622   4.387 -0.7203 -0.6250  0.0257
  119DOPC  H15R16364   5.800   4.681   4.421  0.0732 -2.6286  1.7357
  119DOPC  H15S16365   5.738   4.515   4.405 -2.8138 -0.8741  1.8112
  119DOPC  C21616366   5.592   4.656   4.473 -0.1925  0.1840 -0.0484
  119DOPC  H16R16367   5.605   4.617   4.576  0.6934 -0.9270 -0.5552
  119DOPC  H16S16368   5.513   4.594   4.424  1.2581 -0.0306 -2.2648
  119DOPC  C21716369   5.557   4.799   4.471 -0.4149 -0.0805 -0.5697
  119DOPC  H17R16370   5.476   4.826   4.542  2.5031  2.3252  2.1572
  119DOPC  H17S16371   5.513   4.825   4.373 -2.4448 -0.4654  0.1873
  119DOPC  C21816372   5.668   4.899   4.516  0.2502  0.2980 -0.0409
  119DOPC  H18R16373   5.691   4.875   4.622  1.9842 -0.1844 -0.4946
  119DOPC  H18S16374   5.627   5.002   4.502  0.2333  0.1655 -0.9807
  119DOPC  H18T16375   5.755   4.883   4.450 -0.1186 -2.6865  0.0702
  119DOPC   C3316376   6.663   4.756   2.696 -0.1730  0.2995 -0.3542
  119DOPC   H3X16377   6.720   4.661   2.690 -1.0636 -0.2684  0.0868
  119DOPC   H3Y16378   6.707   4.824   2.772  3.0107 -1.9482  0.0060
  119DOPC   C3416379   6.660   4.834   2.564  0.0537 -0.1703  0.7581
  119DOPC   H4X16380   6.568   4.893   2.547  0.4321  0.3006  0.3295
  119DOPC   H4Y16381   6.669   4.772   2.472 -0.4682  0.2416  0.4226
  119DOPC   C3516382   6.774   4.938   2.562 -0.4679 -0.3804 -0.3935
  119DOPC   H5X16383   6.791   4.987   2.660  2.3614  0.5420 -1.2375
  119DOPC   H5Y16384   6.752   5.022   2.492 -1.6440  0.9398  1.4937
  119DOPC   C3616385   6.910   4.876   2.516  0.6716 -0.1612  0.3777
  119DOPC   H6X16386   6.926   4.781   2.573 -3.0159  0.3676  2.6519
  119DOPC   H6Y16387   6.903   4.848   2.409  1.7592 -1.4156  0.6074
  119DOPC   C3716388   7.021   4.973   2.531  0.1171  0.0705 -0.1765
  119DOPC   H7X16389   6.997   5.064   2.473  1.3998  1.4570  1.3385
  119DOPC   H7Y16390   7.041   4.988   2.640 -1.5648 -0.2699  0.2023
  119DOPC   C3816391   7.161   4.940   2.458  0.1767 -0.7491  0.3448
  119DOPC   H8X16392   7.222   5.033   2.458 -3.4328  1.8596 -0.8485
  119DOPC   H8Y16393   7.136   4.920   2.351 -1.2314  2.1088  0.0413
  119DOPC   C3916394   7.222   4.813   2.505 -0.4039  0.1640 -0.1409
  119DOPC   H9X16395   7.201   4.730   2.436 -0.6673  0.6555 -0.6608
  119DOPC  C31016396   7.306   4.789   2.614  0.1066  0.4630  0.8255
  119DOPC  H10X16397   7.340   4.687   2.640  0.4319  0.6631  1.1974
  119DOPC  C31116398   7.347   4.879   2.722 -0.4210 -0.6759 -0.2883
  119DOPC  H11X16399   7.343   4.983   2.686 -1.0804 -0.2719  0.8706
  119DOPC  H11Y16400   7.453   4.857   2.748 -1.1039  0.4824  4.3363
  119DOPC  C31216401   7.271   4.862   2.858 -0.3596  0.5247  0.5027
  119DOPC  H12X16402   7.308   4.937   2.931 -0.1194 -0.0113  0.9428
  119DOPC  H12Y16403   7.305   4.759   2.883 -0.6110  0.4548  0.5579
  119DOPC  C31316404   7.117   4.858   2.859 -0.7415  0.8343 -0.0808
  119DOPC  H13X16405   7.072   4.959   2.857  2.0739  2.1743 -0.7625
  119DOPC  H13Y16406   7.091   4.803   2.766  2.3658  0.5659 -0.9166
  119DOPC  C31416407   7.068   4.776   2.986 -0.6742 -0.5448  1.0729
  119DOPC  H14X16408   6.974   4.724   2.961  0.9903 -2.4844 -1.7714
  119DOPC  H14Y16409   7.132   4.687   3.001 -1.2750 -1.6367 -2.0301
  119DOPC  C31516410   7.065   4.859   3.107 -1.1282  0.1980  0.1814
  119DOPC  H15X16411   6.995   4.943   3.090 -0.4606  0.3962 -1.8704
  119DOPC  H15Y16412   7.157   4.915   3.131 -2.0191  2.5149 -1.4333
  119DOPC  C31616413   7.019   4.774   3.229 -0.2808  0.8781  0.6838
  119DOPC  H16X16414   6.921   4.726   3.209  0.9026 -2.0594  1.4062
  119DOPC  H16Y16415   7.091   4.689   3.236 -1.9028 -0.5169  0.9818
  119DOPC  C31716416   7.000   4.853   3.357 -0.5361 -0.3260 -0.0004
  119DOPC  H17X16417   6.942   4.940   3.320 -1.1648 -0.6457  0.2128
  119DOPC  H17Y16418   6.937   4.792   3.426 -1.8929 -0.0556 -0.9559
  119DOPC  C31816419   7.125   4.918   3.428  0.1797 -0.4394 -0.4797
  119DOPC  H18X16420   7.082   4.969   3.517 -0.5355  1.5138 -1.8800
  119DOPC  H18Y16421   7.201   4.840   3.451 -0.1547 -0.1505  1.7681
  119DOPC  H18Z16422   7.172   4.999   3.369 -3.3221  3.6834  1.7807
  120DOPC     N16423   2.011   4.099   2.123  0.1413  0.0476  0.3674
  120DOPC   C1216424   2.093   4.206   2.179 -0.2202  0.5010  0.2546
  120DOPC  H12A16425   2.035   4.267   2.247 -0.0673  2.6493 -1.4409
  120DOPC  H12B16426   2.119   4.279   2.104  0.4716  1.9892  1.8640
  120DOPC   C1316427   1.879   4.163   2.066  0.4738  0.1534 -0.5004
  120DOPC  H13A16428   1.839   4.231   2.140 -0.3827  0.4161 -1.1915
  120DOPC  H13B16429   1.886   4.197   1.964 -1.7406  0.7474 -0.5033
  120DOPC  H13C16430   1.804   4.086   2.054 -0.0597  0.2733  1.6088
  120DOPC   C1416431   1.970   3.988   2.220 -0.3121  0.5788  1.2630
  120DOPC  H14A16432   2.055   3.963   2.282 -2.0659 -0.3839  3.4006
  120DOPC  H14B16433   1.898   4.022   2.292 -2.5636 -2.3333  0.5427
  120DOPC  H14C16434   1.923   3.906   2.169 -0.3547  0.4485  1.5136
  120DOPC   C1516435   2.073   4.028   2.002  0.0131  0.3827  0.3075
  120DOPC  H15A16436   2.159   3.969   2.029 -0.0800 -1.0588 -2.2458
  120DOPC  H15B16437   2.109   4.102   1.932  0.2834  0.4101  0.4759
  120DOPC  H15C16438   2.004   3.958   1.956 -0.3294  0.6331  0.4322
  120DOPC   C1116439   2.219   4.166   2.261  0.8069 -0.0789 -0.6938
  120DOPC  H11A16440   2.256   4.260   2.308  0.6305  0.4738 -1.6230
  120DOPC  H11B16441   2.185   4.095   2.340  2.3544  0.7280  0.7579
  120DOPC     P16442   2.402   4.176   2.078 -0.2828  0.1608 -0.1698
  120DOPC   O1316443   2.312   4.233   1.979  0.4483  0.0835 -0.1001
  120DOPC   O1416444   2.504   4.087   2.023  0.0010  0.4163 -0.1205
  120DOPC   O1216445   2.311   4.098   2.180  0.0200 -0.0083  0.1573
  120DOPC   O1116446   2.471   4.297   2.156  0.3744 -0.5520  0.2445
  120DOPC    C116447   2.588   4.291   2.240  0.5060 -0.1961  0.3807
  120DOPC    HA16448   2.615   4.396   2.264  0.9504 -0.3771  0.6739
  120DOPC    HB16449   2.671   4.268   2.170 -0.4357 -0.9936 -0.5241
  120DOPC    C216450   2.565   4.215   2.370 -0.1475 -0.3908 -0.3431
  120DOPC    HS16451   2.528   4.113   2.345 -0.8456 -0.2673  0.1535
  120DOPC   O2116452   2.465   4.288   2.446  0.8414  0.0337  0.3819
  120DOPC   C2116453   2.404   4.215   2.525  0.0778  0.0463 -0.0684
  120DOPC   O2216454   2.424   4.098   2.556  0.8485 -0.2185  0.4920
  120DOPC   C2216455   2.294   4.297   2.598  0.1720 -0.1100 -0.7283
  120DOPC   H2R16456   2.191   4.269   2.566 -0.7268  1.1207  0.9396
  120DOPC   H2S16457   2.321   4.405   2.600  1.1442 -0.3491 -0.6628
  120DOPC    C316458   2.704   4.207   2.450 -0.1176  0.0492  0.5011
  120DOPC    HX16459   2.715   4.316   2.471 -2.8990  0.8107 -1.5201
  120DOPC    HY16460   2.784   4.162   2.388  0.0999 -0.0954  0.8798
  120DOPC   O3116461   2.709   4.149   2.584 -0.5071  0.0749  0.2923
  120DOPC   C3116462   2.705   4.016   2.574  0.1127 -0.0513  0.4086
  120DOPC   O3216463   2.704   3.949   2.473 -0.4142 -0.1501 -0.5405
  120DOPC   C3216464   2.702   3.946   2.708 -0.8818 -0.1003  0.0888
  120DOPC   H2X16465   2.612   3.977   2.766  0.0893  1.2859  0.9312
  120DOPC   H2Y16466   2.716   3.837   2.695  2.7656  0.1722  0.5390
  120DOPC   C2316467   2.287   4.258   2.751 -0.4782 -0.1768  0.6499
  120DOPC   H3R16468   2.391   4.254   2.789 -0.7202  2.0889  1.7008
  120DOPC   H3S16469   2.247   4.155   2.760 -1.7591 -0.0781 -2.5447
  120DOPC   C2416470   2.203   4.349   2.831 -0.3994 -0.2197 -0.3750
  120DOPC   H4R16471   2.228   4.453   2.799  0.6622 -0.0349  0.9393
  120DOPC   H4S16472   2.241   4.351   2.936  0.7753 -0.6833 -0.7742
  120DOPC   C2516473   2.047   4.325   2.816  0.1986 -0.3173 -0.6778
  120DOPC   H5R16474   2.021   4.220   2.841  1.2788 -0.7889 -1.4789
  120DOPC   H5S16475   2.004   4.322   2.713 -2.8109 -2.2154  0.4991
  120DOPC   C2616476   1.950   4.429   2.897 -0.1157  0.2193 -0.1915
  120DOPC   H6R16477   1.846   4.397   2.874  0.6182 -0.2227 -3.3044
  120DOPC   H6S16478   1.975   4.530   2.858  1.8854  0.0585  0.5214
  120DOPC   C2716479   1.976   4.433   3.044 -0.2162 -0.0441 -0.9081
  120DOPC   H7R16480   2.085   4.456   3.053 -0.0995 -1.1310  1.0312
  120DOPC   H7S16481   1.944   4.335   3.086  1.7779  0.4086  1.9470
  120DOPC   C2816482   1.902   4.542   3.128  0.2736 -0.4481  0.2339
  120DOPC   H8R16483   1.937   4.523   3.231  1.6193  0.3649 -0.0512
  120DOPC   H8S16484   1.794   4.525   3.105 -0.2065  1.7211  0.6542
  120DOPC   C2916485   1.934   4.684   3.087 -0.1480  1.3427 -0.3422
  120DOPC   H9R16486   1.907   4.715   2.985  0.1818  2.5195 -0.0819
  120DOPC  C21016487   2.009   4.767   3.160 -0.1071 -0.6080  0.4010
  120DOPC  H10R16488   2.033   4.865   3.116 -1.0622 -1.8406 -3.1607
  120DOPC  C21116489   2.068   4.748   3.297 -0.3637 -0.8453  0.0368
  120DOPC  H11R16490   2.137   4.661   3.300  0.6753 -0.0305  0.9415
  120DOPC  H11S16491   1.986   4.720   3.365  0.1141 -0.4737  0.7807
  120DOPC  C21216492   2.139   4.879   3.346  0.1306  0.7061 -0.1449
  120DOPC  H12R16493   2.061   4.957   3.331 -2.7825 -1.9497  0.1843
  120DOPC  H12S16494   2.239   4.911   3.309 -0.2867  2.0449 -0.1573
  120DOPC  C21316495   2.170   4.864   3.496  0.3306  0.2027 -0.1289
  120DOPC  H13R16496   2.072   4.839   3.542  0.5000  0.2936  0.2885
  120DOPC  H13S16497   2.207   4.963   3.529 -0.7736  0.8795 -0.8531
  120DOPC  C21416498   2.281   4.759   3.515 -0.4301  1.0143  1.0369
  120DOPC  H14R16499   2.334   4.755   3.418 -1.2239  4.0090  0.3570
  120DOPC  H14S16500   2.233   4.660   3.524 -0.3433  0.7512 -1.0106
  120DOPC  C21516501   2.379   4.793   3.624  0.2580 -0.6045  0.0291
  120DOPC  H15R16502   2.450   4.711   3.643 -0.9421 -1.6355  0.1916
  120DOPC  H15S16503   2.324   4.829   3.714 -2.2968 -0.5336 -1.4779
  120DOPC  C21616504   2.469   4.923   3.581  0.7131  0.1715  0.5352
  120DOPC  H16R16505   2.405   5.007   3.546 -0.5276 -1.0696 -0.2902
  120DOPC  H16S16506   2.534   4.897   3.494 -1.3929  1.1704 -1.4360
  120DOPC  C21716507   2.552   4.984   3.696  0.6960 -0.5358 -0.4030
  120DOPC  H17R16508   2.654   4.940   3.694  0.6306 -1.1198  2.8433
  120DOPC  H17S16509   2.515   4.948   3.794  1.4345 -2.5538 -0.8143
  120DOPC  C21816510   2.552   5.143   3.683  0.1449  0.0054 -0.1680
  120DOPC  H18R16511   2.500   5.177   3.775  0.9076 -0.5909  0.4962
  120DOPC  H18S16512   2.508   5.183   3.589 -0.7259  0.1506  0.2909
  120DOPC  H18T16513   2.654   5.185   3.692 -0.9755  2.9595  0.0299
  120DOPC   C3316514   2.830   3.984   2.788 -0.0739 -0.2151 -0.2686
  120DOPC   H3X16515   2.813   4.088   2.823 -2.3424 -0.1482 -1.3771
  120DOPC   H3Y16516   2.922   3.975   2.726  0.1827 -1.3828  0.2708
  120DOPC   C3416517   2.845   3.898   2.916  0.2496 -0.1965  0.2389
  120DOPC   H4X16518   2.951   3.899   2.948  1.1846 -1.9080 -2.4925
  120DOPC   H4Y16519   2.839   3.795   2.876  0.7642 -0.3722  0.6081
  120DOPC   C3516520   2.744   3.929   3.031 -0.5420 -0.4991 -0.6337
  120DOPC   H5X16521   2.731   3.839   3.094  0.0332 -0.6807 -0.7675
  120DOPC   H5Y16522   2.643   3.954   2.993 -1.3135  0.5285  1.8867
  120DOPC   C3616523   2.784   4.042   3.122 -0.4723  0.0097 -0.6246
  120DOPC   H6X16524   2.892   4.032   3.143 -0.7961 -0.8188  0.7966
  120DOPC   H6Y16525   2.785   4.137   3.065  2.2325  0.0394 -0.6619
  120DOPC   C3716526   2.704   4.043   3.254  0.0642  0.7726 -0.0725
  120DOPC   H7X16527   2.601   4.078   3.230  0.1570  0.8297 -0.3981
  120DOPC   H7Y16528   2.699   3.940   3.293  1.9317  0.6523 -0.0624
  120DOPC   C3816529   2.751   4.140   3.366 -0.0185  0.4410  0.1102
  120DOPC   H8X16530   2.676   4.138   3.448  0.7795 -2.0661  0.8574
  120DOPC   H8Y16531   2.759   4.246   3.334  0.8844  1.2470  2.7677
  120DOPC   C3916532   2.876   4.085   3.424 -0.7264  0.0990 -0.6048
  120DOPC   H9X16533   2.965   4.079   3.360  0.1878  0.2936  0.6129
  120DOPC  C31016534   2.898   4.019   3.537  0.5105 -0.5645 -0.2491
  120DOPC  H10X16535   3.002   3.990   3.560  1.0909  1.3518 -0.2253
  120DOPC  C31116536   2.813   4.023   3.659 -0.0604 -0.8276 -0.8875
  120DOPC  H11X16537   2.848   3.952   3.737 -1.2637  1.0215  1.4882
  120DOPC  H11Y16538   2.712   3.988   3.628 -0.5235  0.6293 -1.1035
  120DOPC  C31216539   2.794   4.153   3.743 -0.5113 -0.4188  0.4625
  120DOPC  H12X16540   2.739   4.236   3.692  2.5209  2.1620  1.1108
  120DOPC  H12Y16541   2.898   4.185   3.766  0.3153 -0.8157 -2.3078
  120DOPC  C31316542   2.725   4.127   3.878 -0.7716  0.9115 -0.3542
  120DOPC  H13X16543   2.781   4.043   3.923 -2.7904 -1.4706 -2.0475
  120DOPC  H13Y16544   2.732   4.214   3.947 -1.8321 -0.1324  1.1270
  120DOPC  C31416545   2.572   4.098   3.879 -0.7682 -0.1133 -0.6696
  120DOPC  H14X16546   2.542   4.025   3.801 -0.0295 -0.4107 -0.6767
  120DOPC  H14Y16547   2.543   4.047   3.974 -0.4619  1.3089  0.2166
  120DOPC  C31516548   2.493   4.225   3.856 -0.0363 -0.4689  0.4737
  120DOPC  H15X16549   2.542   4.257   3.762 -0.3095  0.4727  0.6399
  120DOPC  H15Y16550   2.522   4.293   3.939  0.2269  0.0605 -0.0432
  120DOPC  C31616551   2.337   4.219   3.853  0.3913 -0.2758 -0.0459
  120DOPC  H16X16552   2.309   4.158   3.765 -0.2107  0.3860 -0.3290
  120DOPC  H16Y16553   2.300   4.166   3.944 -0.9383  0.2501 -0.2553
  120DOPC  C31716554   2.267   4.359   3.864 -0.3654  0.2928  0.5017
  120DOPC  H17X16555   2.156   4.359   3.874 -0.3527 -0.8316  0.8384
  120DOPC  H17Y16556   2.297   4.391   3.966  0.1776 -3.1096  1.5396
  120DOPC  C31816557   2.302   4.456   3.753  0.5273  0.5001  0.3133
  120DOPC  H18X16558   2.257   4.553   3.784  1.3140  0.0947  2.9569
  120DOPC  H18Y16559   2.410   4.468   3.730  0.0190  0.5087 -2.3262
  120DOPC  H18Z16560   2.252   4.427   3.658 -0.8458  0.6444  0.9616
  121DOPC     N16561   2.706   3.765   2.156  0.1718  0.3580 -0.2366
  121DOPC   C1216562   2.831   3.702   2.216 -0.3787  0.4932 -0.3077
  121DOPC  H12A16563   2.811   3.708   2.322 -1.0496  1.1047 -0.4570
  121DOPC  H12B16564   2.913   3.769   2.199 -1.2685  1.5477 -0.5853
  121DOPC   C1316565   2.596   3.698   2.227 -0.1821 -1.1239 -0.1569
  121DOPC  H13A16566   2.497   3.714   2.189  0.5684 -1.5343 -2.3967
  121DOPC  H13B16567   2.612   3.592   2.218 -0.9446 -1.1552 -1.1824
  121DOPC  H13C16568   2.602   3.732   2.330 -2.0102 -0.0444 -0.3721
  121DOPC   C1416569   2.701   3.752   2.008 -0.4530 -0.3646 -1.1516
  121DOPC  H14A16570   2.781   3.809   1.965 -1.7494  2.0950 -0.4696
  121DOPC  H14B16571   2.720   3.649   1.981  1.6146 -0.3877  0.1330
  121DOPC  H14C16572   2.604   3.782   1.972 -1.3432  0.4208  1.6451
  121DOPC   C1516573   2.708   3.913   2.178  0.4792 -0.2338 -0.1275
  121DOPC  H15A16574   2.793   3.952   2.124 -0.6799  1.3787 -0.8715
  121DOPC  H15B16575   2.722   3.943   2.281  3.3008  0.1410 -0.5452
  121DOPC  H15C16576   2.613   3.952   2.144  0.9385  0.8428 -0.2280
  121DOPC   C1116577   2.871   3.561   2.168  0.3578 -0.2270 -0.3901
  121DOPC  H11A16578   2.896   3.573   2.060 -0.5043  2.2426 -0.3783
  121DOPC  H11B16579   2.960   3.521   2.222  0.4884 -2.9963 -2.4411
  121DOPC     P16580   2.749   3.326   2.098  0.1926  0.1500  0.3443
  121DOPC   O1316581   2.882   3.265   2.086  0.2830  0.3160  0.2786
  121DOPC   O1416582   2.674   3.346   1.976  0.2943 -0.6853 -0.0300
  121DOPC   O1216583   2.766   3.462   2.181 -0.4607 -0.2821  0.1221
  121DOPC   O1116584   2.657   3.242   2.198 -0.5895  0.2695  0.0541
  121DOPC    C116585   2.545   3.276   2.287  0.0349  0.5125 -0.4778
  121DOPC    HA16586   2.458   3.214   2.257  0.5694 -0.3034 -0.3668
  121DOPC    HB16587   2.520   3.384   2.281 -0.3859  0.5132  0.8922
  121DOPC    C216588   2.587   3.240   2.435  0.6599 -0.0104  0.9127
  121DOPC    HS16589   2.499   3.261   2.500  0.0134 -0.9168  0.3486
  121DOPC   O2116590   2.701   3.317   2.481 -0.6089 -0.4286  0.0622
  121DOPC   C2116591   2.675   3.447   2.510 -0.7955  0.4678 -0.0388
  121DOPC   O2216592   2.569   3.503   2.491 -0.0579 -0.2506 -0.6376
  121DOPC   C2216593   2.805   3.521   2.535 -0.1346 -0.3077 -0.3922
  121DOPC   H2R16594   2.784   3.624   2.572 -0.7367 -0.2929 -0.7731
  121DOPC   H2S16595   2.848   3.523   2.432  1.5648  0.4163  0.2837
  121DOPC    C316596   2.610   3.091   2.453  0.0204 -0.4565  0.0098
  121DOPC    HX16597   2.677   3.048   2.376 -0.6308 -1.4853 -0.0042
  121DOPC    HY16598   2.513   3.042   2.427  1.2581 -1.1550 -4.0117
  121DOPC   O3116599   2.656   3.054   2.584  0.0635 -0.2711  0.6495
  121DOPC   C3116600   2.784   3.059   2.597 -0.2766 -0.0603  0.4497
  121DOPC   O3216601   2.870   3.086   2.511  0.1543  0.0423 -0.4000
  121DOPC   C3216602   2.818   3.018   2.736 -0.5252  0.6765 -0.8434
  121DOPC   H2X16603   2.750   3.076   2.802 -0.8887 -1.5360  0.8462
  121DOPC   H2Y16604   2.796   2.909   2.742 -0.1817  0.5653 -1.4729
  121DOPC   C2316605   2.903   3.442   2.638  0.5738 -0.3854  0.5707
  121DOPC   H3R16606   2.913   3.341   2.592 -1.9227 -0.8174  0.8410
  121DOPC   H3S16607   2.847   3.447   2.734 -1.8279 -0.0301 -0.7769
  121DOPC   C2416608   3.042   3.511   2.662 -0.1946 -0.3073  0.0862
  121DOPC   H4R16609   3.024   3.617   2.689 -2.8233  0.2356 -3.0726
  121DOPC   H4S16610   3.100   3.511   2.567 -0.5062  1.2672 -0.1352
  121DOPC   C2516611   3.133   3.447   2.781 -1.0604  0.3207 -0.2987
  121DOPC   H5R16612   3.236   3.489   2.781  0.1979 -2.5057  0.0995
  121DOPC   H5S16613   3.136   3.340   2.750 -1.1729 -0.3399  1.8281
  121DOPC   C2616614   3.066   3.443   2.923  0.6916  0.4733 -0.0450
  121DOPC   H6R16615   3.124   3.373   2.987  0.7401 -0.0984 -0.6990
  121DOPC   H6S16616   2.962   3.406   2.919  0.1508  2.0267 -2.7664
  121DOPC   C2716617   3.059   3.583   2.982 -0.2408 -0.1146 -1.0173
  121DOPC   H7R16618   3.009   3.651   2.909 -1.2530 -0.4130 -0.6046
  121DOPC   H7S16619   3.160   3.627   3.000 -0.1123  0.6063 -3.1647
  121DOPC   C2816620   2.976   3.577   3.113  0.4685 -0.2486 -0.0297
  121DOPC   H8R16621   2.868   3.552   3.102  0.2596  0.3588  0.5590
  121DOPC   H8S16622   2.954   3.680   3.148  1.4593 -0.5206  1.4819
  121DOPC   C2916623   3.037   3.511   3.228 -0.3972 -0.3033  0.1968
  121DOPC   H9R16624   3.079   3.413   3.202  1.2018 -0.0295  1.5630
  121DOPC  C21016625   3.033   3.549   3.359  0.7930 -0.5597  0.2649
  121DOPC  H10R16626   3.091   3.484   3.427  1.3523 -1.2584 -0.8487
  121DOPC  C21116627   2.976   3.671   3.424 -0.0753  0.3072 -0.4602
  121DOPC  H11R16628   2.986   3.745   3.342 -2.8084 -0.0891 -1.2604
  121DOPC  H11S16629   3.039   3.704   3.509  0.6902 -2.0694 -0.0315
  121DOPC  C21216630   2.827   3.667   3.452 -0.0275  0.9484 -0.3228
  121DOPC  H12R16631   2.771   3.653   3.357 -0.0449 -2.8345  0.0980
  121DOPC  H12S16632   2.802   3.763   3.502 -2.7245  0.1231  0.0709
  121DOPC  C21316633   2.781   3.558   3.550  0.0965 -0.0706 -0.2503
  121DOPC  H13R16634   2.807   3.450   3.541  0.7565  0.0939 -0.3384
  121DOPC  H13S16635   2.670   3.562   3.543  0.0932  1.1565  0.2310
  121DOPC  C21416636   2.802   3.584   3.700 -0.1374 -0.1486  0.1928
  121DOPC  H14R16637   2.765   3.687   3.717 -2.6974 -1.1843  1.4828
  121DOPC  H14S16638   2.904   3.570   3.741 -1.5281 -3.2987  3.0722
  121DOPC  C21516639   2.712   3.483   3.782  0.4817 -0.3467 -0.2938
  121DOPC  H15R16640   2.743   3.381   3.751  2.9573  0.1940  0.1505
  121DOPC  H15S16641   2.610   3.508   3.746  0.8557 -0.6733 -1.6261
  121DOPC  C21616642   2.722   3.499   3.937  0.2395 -0.4423 -0.3724
  121DOPC  H16R16643   2.714   3.608   3.959 -0.3010 -0.5954  0.2069
  121DOPC  H16S16644   2.828   3.478   3.966  0.3544  0.6953  0.1018
  121DOPC  C21716645   2.619   3.421   4.018 -0.1859  0.1774 -0.2321
  121DOPC  H17R16646   2.636   3.311   4.012 -2.2396 -0.3348  1.7855
  121DOPC  H17S16647   2.518   3.448   3.981 -1.1023 -1.9037  0.5735
  121DOPC  C21816648   2.627   3.473   4.164  0.0956 -0.5993 -0.0974
  121DOPC  H18R16649   2.615   3.584   4.158  3.0869 -0.2711 -3.2028
  121DOPC  H18S16650   2.732   3.452   4.193  0.3374  2.4333  1.6341
  121DOPC  H18T16651   2.556   3.429   4.237  2.7980 -1.3290  2.2170
  121DOPC   C3316652   2.967   3.054   2.775  0.1138  0.2096 -0.3997
  121DOPC   H3X16653   2.983   3.162   2.756 -0.2236  0.7840  2.2019
  121DOPC   H3Y16654   3.033   2.990   2.712 -0.6737 -0.4726 -0.5591
  121DOPC   C3416655   2.997   3.032   2.924  0.1991 -0.1613 -0.0923
  121DOPC   H4X16656   2.957   2.930   2.944  1.8994 -0.9019 -0.3271
  121DOPC   H4Y16657   2.946   3.108   2.987 -0.9433 -0.0330 -1.1439
  121DOPC   C3516658   3.147   3.058   2.964  0.7471 -0.2980  0.6186
  121DOPC   H5X16659   3.168   3.163   2.937 -0.2911  0.1002  1.2806
  121DOPC   H5Y16660   3.222   3.005   2.902  0.7596  1.6570 -1.1589
  121DOPC   C3616661   3.165   3.041   3.116  0.0157 -0.3385  0.0344
  121DOPC   H6X16662   3.271   3.070   3.129  0.1820 -0.6877 -0.5215
  121DOPC   H6Y16663   3.102   3.123   3.157  1.7363  1.2401 -0.3579
  121DOPC   C3716664   3.135   2.895   3.170 -0.8555  0.9753 -0.3319
  121DOPC   H7X16665   3.027   2.870   3.160 -0.8018 -0.6153  2.0469
  121DOPC   H7Y16666   3.188   2.822   3.106  0.5696  0.7574  1.0474
  121DOPC   C3816667   3.177   2.870   3.316  0.0259 -1.3156 -0.2154
  121DOPC   H8X16668   3.126   2.949   3.375  1.9563  0.6889 -1.0735
  121DOPC   H8Y16669   3.288   2.881   3.321 -0.0677 -0.5991  0.5399
  121DOPC   C3916670   3.136   2.738   3.370 -0.1063 -0.4404  0.1018
  121DOPC   H9X16671   3.112   2.667   3.289 -2.1142  2.2013 -1.8036
  121DOPC  C31016672   3.092   2.722   3.495  0.6476  0.2438 -0.1141
  121DOPC  H10X16673   3.102   2.616   3.525  1.1571  0.6981  1.3981
  121DOPC  C31116674   3.100   2.821   3.606  0.5118 -0.0705  0.0099
  121DOPC  H11X16675   3.005   2.878   3.611 -0.2240 -1.2452 -0.0409
  121DOPC  H11Y16676   3.183   2.888   3.578 -0.0797  0.3421 -0.8243
  121DOPC  C31216677   3.135   2.765   3.744  0.2522  0.3310 -0.6475
  121DOPC  H12X16678   3.058   2.703   3.794  1.9986 -1.9936 -0.6830
  121DOPC  H12Y16679   3.157   2.845   3.818  0.0894  0.4132 -0.6870
  121DOPC  C31316680   3.270   2.688   3.745  0.5140  0.0834  0.0066
  121DOPC  H13X16681   3.306   2.654   3.844  0.1328  0.6167  0.3273
  121DOPC  H13Y16682   3.258   2.598   3.681  0.2452  0.5793 -0.6478
  121DOPC  C31416683   3.387   2.766   3.678 -0.0450 -0.2613  0.1645
  121DOPC  H14X16684   3.358   2.789   3.573 -0.1594 -0.3532  0.1763
  121DOPC  H14Y16685   3.404   2.866   3.724 -0.7631  0.1045 -0.3501
  121DOPC  C31516686   3.514   2.681   3.674  0.1398 -0.0775  0.0983
  121DOPC  H15X16687   3.491   2.589   3.615 -0.3890 -1.0932  1.8279
  121DOPC  H15Y16688   3.545   2.664   3.779 -1.6618 -1.3965  0.4580
  121DOPC  C31616689   3.634   2.753   3.612 -0.5208  0.5170 -0.0182
  121DOPC  H16X16690   3.600   2.787   3.511  1.5785 -2.9312 -2.1001
  121DOPC  H16Y16691   3.663   2.840   3.675 -0.9125 -0.7419  1.9768
  121DOPC  C31716692   3.751   2.660   3.588 -0.2204 -0.0347 -0.2452
  121DOPC  H17X16693   3.719   2.554   3.578 -1.5389  0.1295  1.7360
  121DOPC  H17Y16694   3.787   2.687   3.486  1.4061  0.0545  0.3325
  121DOPC  C31816695   3.872   2.686   3.688 -0.1434 -0.0859  0.6710
  121DOPC  H18X16696   3.875   2.796   3.706  0.0227  0.0220  0.0056
  121DOPC  H18Y16697   3.853   2.630   3.781 -0.0379 -2.0141 -0.4172
  121DOPC  H18Z16698   3.965   2.648   3.640 -1.4645 -0.6404 -1.6227
  122DOPC     N16699   0.602   4.353   1.529  0.0462 -0.1041 -0.3445
  122DOPC   C1216700   0.592   4.422   1.667  0.1814 -0.0679  1.3785
  122DOPC  H12A16701   0.539   4.343   1.718  2.5547 -2.4328  0.3683
  122DOPC  H12B16702   0.539   4.515   1.651 -0.8895 -1.1803 -2.3782
  122DOPC   C1316703   0.654   4.218   1.540 -1.0289 -0.3210 -0.1851
  122DOPC  H13A16704   0.585   4.141   1.570  1.0706 -2.0718  0.4207
  122DOPC  H13B16705   0.693   4.184   1.445 -0.0729  2.2954 -0.8304
  122DOPC  H13C16706   0.734   4.215   1.613 -1.1580  0.0422 -0.0234
  122DOPC   C1416707   0.677   4.446   1.446 -0.2829 -0.5478  0.2548
  122DOPC  H14A16708   0.671   4.408   1.345 -1.0779 -1.5038  0.6388
  122DOPC  H14B16709   0.634   4.543   1.429  0.6447  0.2505  2.1258
  122DOPC  H14C16710   0.782   4.465   1.464 -0.5844  2.8997 -1.0308
  122DOPC   C1516711   0.462   4.334   1.473 -0.6452  0.3574 -0.4133
  122DOPC  H15A16712   0.408   4.428   1.483 -3.0536 -1.1345  2.4791
  122DOPC  H15B16713   0.415   4.258   1.534  1.8884  0.5846  2.0092
  122DOPC  H15C16714   0.463   4.295   1.373 -0.9672  0.6047 -0.5150
  122DOPC   C1116715   0.712   4.452   1.753 -1.0360  0.3766 -0.5174
  122DOPC  H11A16716   0.799   4.491   1.695 -0.0521 -1.5623 -0.4152
  122DOPC  H11B16717   0.684   4.527   1.830  1.0638 -0.6223  1.3628
  122DOPC     P16718   0.679   4.269   1.944 -0.0205 -0.0863  0.2317
  122DOPC   O1316719   0.768   4.165   2.006 -0.7685 -0.0171 -0.1620
  122DOPC   O1416720   0.542   4.231   1.902 -0.5515 -0.3918 -0.1820
  122DOPC   O1216721   0.756   4.343   1.826 -0.2342  0.0778  0.3474
  122DOPC   O1116722   0.658   4.383   2.047 -0.4719  0.2521 -0.2683
  122DOPC    C116723   0.773   4.453   2.094 -0.1939  0.0508  0.3435
  122DOPC    HA16724   0.761   4.560   2.067  0.5405 -0.0238 -0.3219
  122DOPC    HB16725   0.871   4.423   2.051  0.3586  0.3905  1.3249
  122DOPC    C216726   0.795   4.440   2.241  0.3584  0.1283  0.6639
  122DOPC    HS16727   0.832   4.337   2.261  0.5204  0.0461 -0.0429
  122DOPC   O2116728   0.671   4.467   2.306  0.8634  0.6183 -0.3148
  122DOPC   C2116729   0.648   4.407   2.420  0.0213  0.2304 -0.5083
  122DOPC   O2216730   0.726   4.331   2.480 -0.4411 -0.3846 -0.0791
  122DOPC   C2216731   0.513   4.442   2.476 -0.0607 -0.0429  0.0954
  122DOPC   H2R16732   0.434   4.394   2.415  0.1170  1.3980 -1.3263
  122DOPC   H2S16733   0.503   4.552   2.468  2.2218  0.1438 -1.1641
  122DOPC    C316734   0.902   4.542   2.287  0.1923 -0.5541 -0.9741
  122DOPC    HX16735   0.861   4.644   2.272  1.6461  0.0399 -1.0199
  122DOPC    HY16736   0.986   4.539   2.214  1.3405  0.4169  0.2714
  122DOPC   O3116737   0.949   4.523   2.426 -0.4957  0.8322  0.4733
  122DOPC   C3116738   1.049   4.437   2.434 -1.0565 -0.1828  0.0189
  122DOPC   O3216739   1.103   4.373   2.348 -0.4470 -0.0741 -0.0514
  122DOPC   C3216740   1.085   4.433   2.585 -0.1641 -0.1015  0.3210
  122DOPC   H2X16741   1.074   4.326   2.610  1.6790 -0.7183 -1.1987
  122DOPC   H2Y16742   1.192   4.462   2.598 -0.1874  0.2073 -0.1394
  122DOPC   C2316743   0.503   4.407   2.622 -0.0650 -0.2948  0.2003
  122DOPC   H3R16744   0.581   4.462   2.679  1.0254 -3.5282  2.0847
  122DOPC   H3S16745   0.525   4.301   2.647  0.7257  0.3858  2.6498
  122DOPC   C2416746   0.369   4.453   2.689 -0.8237  0.5696 -0.3576
  122DOPC   H4R16747   0.280   4.418   2.633  1.7888 -0.6732 -4.1338
  122DOPC   H4S16748   0.382   4.563   2.688  2.4222  0.3736  2.1487
  122DOPC   C2516749   0.349   4.405   2.834  0.4099 -0.5461 -0.0188
  122DOPC   H5R16750   0.420   4.458   2.902  0.0973 -2.5230  1.9798
  122DOPC   H5S16751   0.373   4.297   2.846  0.6100 -0.4968  0.0450
  122DOPC   C2616752   0.206   4.426   2.887  0.2365 -0.5296 -0.8548
  122DOPC   H6R16753   0.169   4.513   2.828  3.4404  1.1330 -0.6571
  122DOPC   H6S16754   0.221   4.447   2.995  1.0484 -0.4824 -0.9642
  122DOPC   C2716755   0.114   4.308   2.880  0.1227 -0.1715  0.1637
  122DOPC   H7R16756   0.156   4.214   2.922 -0.2580 -0.8268 -0.8734
  122DOPC   H7S16757   0.084   4.301   2.773  0.2517  1.5519 -0.0107
  122DOPC   C2816758  -0.030   4.335   2.941  0.3442  0.5067 -0.5471
  122DOPC   H8R16759  -0.096   4.263   2.888  0.7035 -0.6729  0.5599
  122DOPC   H8S16760  -0.046   4.440   2.906  0.8050  0.3977 -1.1053
  122DOPC   C2916761  -0.038   4.315   3.094  0.1742 -0.6226 -0.7888
  122DOPC   H9R16762  -0.052   4.213   3.134  0.5812  0.4502  2.3622
  122DOPC  C21016763  -0.039   4.410   3.186 -0.4576 -0.8131 -0.2870
  122DOPC  H10R16764  -0.047   4.380   3.291  1.1154 -0.8909 -0.1760
  122DOPC  C21116765  -0.016   4.556   3.165  0.4481 -0.1008 -1.3822
  122DOPC  H11R16766  -0.058   4.584   3.066  1.5843 -1.0717 -2.1679
  122DOPC  H11S16767   0.093   4.577   3.159  0.4871  1.6227  2.3035
  122DOPC  C21216768  -0.077   4.656   3.272 -0.3745 -0.4646  0.6355
  122DOPC  H12R16769  -0.029   4.755   3.254  0.4731 -0.4763  2.5501
  122DOPC  H12S16770  -0.034   4.633   3.372 -0.6195 -0.9633  0.6288
  122DOPC  C21316771  -0.226   4.663   3.260  0.3714 -0.1616 -0.6137
  122DOPC  H13R16772  -0.270   4.720   3.344  1.1955  0.7627 -0.7807
  122DOPC  H13S16773  -0.269   4.561   3.264  0.1233 -0.0224  1.1711
  122DOPC  C21416774  -0.269   4.736   3.126 -0.4035  0.5106  0.1057
  122DOPC  H14R16775  -0.268   4.663   3.042 -1.7074  0.4699  0.1083
  122DOPC  H14S16776  -0.192   4.805   3.087  1.0970 -0.8089  0.6191
  122DOPC  C21516777  -0.404   4.797   3.140 -0.5717 -0.2168 -0.7888
  122DOPC  H15R16778  -0.405   4.897   3.189 -0.8789  0.7742 -2.7202
  122DOPC  H15S16779  -0.467   4.737   3.209 -0.1297 -0.5040 -0.6273
  122DOPC  C21616780  -0.489   4.813   3.011  0.0366  0.3466 -0.3053
  122DOPC  H16R16781  -0.592   4.848   3.036 -0.1045  0.4800 -1.0467
  122DOPC  H16S16782  -0.497   4.715   2.961  0.0846  0.7803 -1.1850
  122DOPC  C21716783  -0.445   4.916   2.909 -0.5709 -0.2045  0.2582
  122DOPC  H17R16784  -0.500   4.896   2.815  0.8566  1.7418 -1.0779
  122DOPC  H17S16785  -0.340   4.898   2.876 -0.5624  0.8494 -0.3324
  122DOPC  C21816786  -0.468   5.062   2.942 -0.7512  0.4044 -0.8459
  122DOPC  H18R16787  -0.576   5.087   2.938 -0.4774  2.2907  1.5169
  122DOPC  H18S16788  -0.399   5.128   2.886  2.5349 -2.4812 -0.5512
  122DOPC  H18T16789  -0.431   5.080   3.045 -1.0561 -0.0026 -0.6594
  122DOPC   C3316790   0.987   4.515   2.675 -0.2535  0.2657  0.3456
  122DOPC   H3X16791   0.883   4.485   2.649 -0.2738  0.3273  0.3547
  122DOPC   H3Y16792   0.984   4.626   2.664 -1.1348  0.1185 -1.1914
  122DOPC   C3416793   1.001   4.484   2.831 -0.7332 -0.7375 -0.7676
  122DOPC   H4X16794   1.107   4.511   2.850 -1.0163  2.1794 -2.7871
  122DOPC   H4Y16795   0.984   4.377   2.859 -2.6451 -0.0803  0.8540
  122DOPC   C3516796   0.916   4.581   2.913 -0.0621 -0.2753  0.3259
  122DOPC   H5X16797   0.895   4.679   2.865  0.8535  0.0613  0.5939
  122DOPC   H5Y16798   0.982   4.616   2.995 -2.9275 -0.3748  2.8512
  122DOPC   C3616799   0.782   4.519   2.954 -0.1058  0.2433  0.1449
  122DOPC   H6X16800   0.718   4.553   2.870 -1.1608  0.8455  1.1658
  122DOPC   H6Y16801   0.782   4.408   2.958 -1.8143  0.1928 -0.5147
  122DOPC   C3716802   0.733   4.570   3.087 -0.0125  0.1926  0.5637
  122DOPC   H7X16803   0.737   4.681   3.089  0.7606  0.1696  0.8834
  122DOPC   H7Y16804   0.626   4.541   3.089 -0.4440  1.7295  0.6183
  122DOPC   C3816805   0.811   4.507   3.208 -0.0557  0.0810  0.4596
  122DOPC   H8X16806   0.919   4.511   3.184 -0.1327 -0.1005  0.0760
  122DOPC   H8Y16807   0.785   4.400   3.217 -1.8016  0.5534  1.6289
  122DOPC   C3916808   0.769   4.576   3.332 -0.4505  0.1066 -0.3919
  122DOPC   H9X16809   0.807   4.679   3.335  0.3575 -0.1379 -1.5403
  122DOPC  C31016810   0.695   4.519   3.433 -0.2355  0.5464 -0.3223
  122DOPC  H10X16811   0.695   4.588   3.518  2.1383  3.6636 -2.6612
  122DOPC  C31116812   0.625   4.384   3.448 -0.1207 -0.1472  0.5195
  122DOPC  H11X16813   0.659   4.324   3.535  1.8740 -0.1753 -0.2440
  122DOPC  H11Y16814   0.648   4.309   3.370  1.2225  0.3842  0.3831
  122DOPC  C31216815   0.473   4.414   3.473  0.1780 -0.6048  0.5493
  122DOPC  H12X16816   0.422   4.316   3.487  1.9318 -1.2237  3.3317
  122DOPC  H12Y16817   0.432   4.458   3.379  2.7889 -0.1014 -0.4411
  122DOPC  C31316818   0.446   4.502   3.594 -0.4858 -0.5377 -0.1236
  122DOPC  H13X16819   0.482   4.448   3.684 -1.6284  0.5841  1.0605
  122DOPC  H13Y16820   0.499   4.598   3.576  1.8113 -1.6746  0.2311
  122DOPC  C31416821   0.297   4.530   3.623 -0.3842  0.3375 -0.0006
  122DOPC  H14X16822   0.256   4.580   3.533  0.1113  3.1843  1.2615
  122DOPC  H14Y16823   0.236   4.440   3.647 -1.5336  1.2648  0.6182
  122DOPC  C31516824   0.284   4.621   3.740 -0.6281 -0.0141 -0.6553
  122DOPC  H15X16825   0.339   4.715   3.720  0.8821 -0.8601 -0.6823
  122DOPC  H15Y16826   0.327   4.587   3.837 -2.5326  0.7996  0.5343
  122DOPC  C31616827   0.141   4.648   3.794  0.4084 -0.3003 -0.4378
  122DOPC  H16X16828   0.082   4.554   3.794 -0.1529  0.0012  1.7497
  122DOPC  H16Y16829   0.144   4.706   3.889  1.7129  0.3564 -0.8634
  122DOPC  C31716830   0.062   4.747   3.699 -0.4391  0.0927  0.1795
  122DOPC  H17X16831   0.068   4.723   3.590  0.7097  2.5394 -0.3847
  122DOPC  H17Y16832  -0.047   4.741   3.720 -0.4550  1.1410  0.4691
  122DOPC  C31816833   0.110   4.890   3.713  0.4894 -0.3490 -0.0118
  122DOPC  H18X16834   0.215   4.894   3.677  0.1621 -1.4263 -1.1560
  122DOPC  H18Y16835   0.045   4.957   3.653 -0.4525 -0.1529  1.1945
  122DOPC  H18Z16836   0.107   4.923   3.819  0.7092 -0.7481  0.1205
  123DOPC     N16837   0.582   0.657   2.190  0.4127  0.2538 -0.3812
  123DOPC   C1216838   0.467   0.757   2.190 -0.8873 -0.7763  0.3901
  123DOPC  H12A16839   0.476   0.826   2.273  0.7525  0.2701 -0.6075
  123DOPC  H12B16840   0.381   0.693   2.206 -1.2566 -0.8011 -1.4925
  123DOPC   C1316841   0.572   0.584   2.056  0.5958  0.5108  0.8681
  123DOPC  H13A16842   0.650   0.510   2.049 -0.0477 -0.1258  0.1879
  123DOPC  H13B16843   0.477   0.534   2.045  0.8233  0.4184 -0.9809
  123DOPC  H13C16844   0.587   0.655   1.976  0.9551  0.0159  0.4884
  123DOPC   C1416845   0.567   0.561   2.302  1.0310  0.8253 -1.2044
  123DOPC  H14A16846   0.473   0.509   2.292  1.0867  0.1015  1.3805
  123DOPC  H14B16847   0.645   0.488   2.290  0.4502 -0.5524  2.2006
  123DOPC  H14C16848   0.558   0.613   2.396  0.7195  1.7448 -1.7282
  123DOPC   C1516849   0.718   0.729   2.200  0.5751 -0.3927 -0.3206
  123DOPC  H15A16850   0.729   0.783   2.293  2.7818  0.9783 -1.3158
  123DOPC  H15B16851   0.733   0.792   2.114 -0.4022 -3.1126 -2.6449
  123DOPC  H15C16852   0.796   0.654   2.197 -2.1404 -3.4965  0.5142
  123DOPC   C1116853   0.457   0.855   2.067 -0.5378 -0.1984 -0.2083
  123DOPC  H11A16854   0.445   0.798   1.973  2.0173  0.8704 -1.2612
  123DOPC  H11B16855   0.371   0.924   2.075  1.2791  2.2111 -0.4417
  123DOPC     P16856   0.597   1.081   2.101  0.2943  0.3439  0.3902
  123DOPC   O1316857   0.550   1.174   1.993 -0.1463  0.0217 -0.3998
  123DOPC   O1416858   0.736   1.091   2.146  0.9534 -0.3889 -0.0257
  123DOPC   O1216859   0.577   0.934   2.051 -0.2782  0.2887 -0.1305
  123DOPC   O1116860   0.498   1.098   2.222 -0.2534  0.4099 -0.3604
  123DOPC    C116861   0.519   1.205   2.315 -0.1030 -0.3786 -0.5716
  123DOPC    HA16862   0.450   1.290   2.294  0.0218  0.7273  2.8956
  123DOPC    HB16863   0.623   1.244   2.322 -0.6687  1.1884 -0.3650
  123DOPC    C216864   0.487   1.149   2.457 -0.5073  0.3471 -0.4094
  123DOPC    HS16865   0.562   1.070   2.481  0.7117  1.2880 -1.0666
  123DOPC   O2116866   0.353   1.097   2.452  0.7812  0.5180  0.2514
  123DOPC   C2116867   0.351   0.961   2.437  0.2035  0.4643  0.0010
  123DOPC   O2216868   0.445   0.887   2.458 -0.4149  0.3286  0.2364
  123DOPC   C2216869   0.213   0.909   2.394 -0.0015  0.3916  0.3337
  123DOPC   H2R16870   0.217   0.927   2.285  1.4729  0.2290  0.3426
  123DOPC   H2S16871   0.129   0.967   2.439 -0.5765 -1.4420  1.7384
  123DOPC    C316872   0.498   1.257   2.564  0.0560 -0.6440 -0.9998
  123DOPC    HX16873   0.413   1.326   2.546 -0.3374 -0.9753 -0.4297
  123DOPC    HY16874   0.592   1.314   2.547  0.4536 -1.0096 -0.1302
  123DOPC   O3116875   0.502   1.200   2.699 -0.2481  0.2099 -0.1629
  123DOPC   C3116876   0.498   1.294   2.794 -0.0872 -0.5396  0.2984
  123DOPC   O3216877   0.518   1.417   2.774  0.1696 -0.5217 -0.1431
  123DOPC   C3216878   0.490   1.235   2.932 -0.2598 -0.1942  0.6768
  123DOPC   H2X16879   0.383   1.216   2.954 -0.2533 -0.8800  0.1576
  123DOPC   H2Y16880   0.536   1.135   2.946 -0.8181 -0.9718 -2.4038
  123DOPC   C2316881   0.197   0.756   2.414  0.1260  0.0063  0.5440
  123DOPC   H3R16882   0.278   0.704   2.358  1.2582 -0.0419  2.1555
  123DOPC   H3S16883   0.107   0.723   2.358  1.8313 -2.2516 -1.0380
  123DOPC   C2416884   0.212   0.702   2.557  0.6424 -0.1948 -0.3149
  123DOPC   H4R16885   0.124   0.750   2.605  1.4297 -0.0714  1.0377
  123DOPC   H4S16886   0.305   0.740   2.603  1.0741 -1.0575 -0.4618
  123DOPC   C2516887   0.199   0.550   2.560  0.3420 -0.4548 -0.6827
  123DOPC   H5R16888   0.300   0.526   2.520  0.7265  1.8015 -1.2062
  123DOPC   H5S16889   0.127   0.512   2.484 -0.3814  2.1839 -1.4083
  123DOPC   C2616890   0.179   0.496   2.696 -0.2676  0.5360 -0.3227
  123DOPC   H6R16891   0.258   0.518   2.771  1.1575 -0.1321 -1.5812
  123DOPC   H6S16892   0.178   0.386   2.678  0.9311  0.0247  2.2154
  123DOPC   C2716893   0.040   0.539   2.749  0.2966 -0.5229  0.1089
  123DOPC   H7R16894  -0.025   0.521   2.660 -0.6724  2.4780  0.0901
  123DOPC   H7S16895   0.032   0.647   2.773  5.2140  0.0181  0.3717
  123DOPC   C2816896  -0.014   0.450   2.866  0.2198 -0.4874 -0.2696
  123DOPC   H8R16897   0.005   0.347   2.828 -0.7389 -0.4861 -0.7773
  123DOPC   H8S16898  -0.123   0.467   2.868  0.4764  1.3844 -0.1688
  123DOPC   C2916899   0.060   0.470   2.995  0.6757 -0.3270  0.3179
  123DOPC   H9R16900   0.163   0.433   2.983 -0.0199 -1.9178 -1.1928
  123DOPC  C21016901   0.017   0.523   3.112 -0.0699  0.0702 -0.6224
  123DOPC  H10R16902   0.087   0.530   3.197 -0.5438  1.0640 -0.2946
  123DOPC  C21116903  -0.116   0.585   3.140  0.0761 -0.2208 -0.0636
  123DOPC  H11R16904  -0.155   0.627   3.045  1.6670  1.1507 -0.1566
  123DOPC  H11S16905  -0.113   0.676   3.205 -2.4216  1.0272 -1.5398
  123DOPC  C21216906  -0.230   0.484   3.207 -0.1607 -0.2534 -0.0151
  123DOPC  H12R16907  -0.233   0.384   3.158 -1.3998 -0.9059  1.3057
  123DOPC  H12S16908  -0.330   0.531   3.212  0.5756  1.3135  0.9000
  123DOPC  C21316909  -0.193   0.435   3.350 -0.1644  0.0681 -0.0288
  123DOPC  H13R16910  -0.185   0.521   3.420 -2.6653  1.5112 -1.3614
  123DOPC  H13S16911  -0.092   0.392   3.332 -0.2797 -0.3295  0.2641
  123DOPC  C21416912  -0.293   0.338   3.416  0.2046 -0.2194 -0.2966
  123DOPC  H14R16913  -0.281   0.236   3.373 -1.3647  0.7570 -3.3801
  123DOPC  H14S16914  -0.394   0.379   3.393  0.8874  1.1082 -1.0205
  123DOPC  C21516915  -0.301   0.346   3.569  0.7357  0.4645  0.4639
  123DOPC  H15R16916  -0.289   0.452   3.603 -1.0822  0.2496  1.9114
  123DOPC  H15S16917  -0.214   0.283   3.598 -1.0855 -2.4026  0.0912
  123DOPC  C21616918  -0.428   0.290   3.629 -0.2954 -0.1856  0.7423
  123DOPC  H16R16919  -0.454   0.199   3.570 -1.2189 -0.0579  0.9337
  123DOPC  H16S16920  -0.505   0.369   3.612 -0.7872 -0.8721 -0.3680
  123DOPC  C21716921  -0.409   0.252   3.771 -0.6844  1.0026  0.1282
  123DOPC  H17R16922  -0.302   0.260   3.799 -0.3206 -1.7042 -0.2223
  123DOPC  H17S16923  -0.433   0.144   3.779  0.0095  0.9415  1.9797
  123DOPC  C21816924  -0.504   0.314   3.879 -0.3797  0.1266  0.0828
  123DOPC  H18R16925  -0.484   0.423   3.880  2.1729 -0.2590  0.0019
  123DOPC  H18S16926  -0.491   0.261   3.976 -3.3879 -0.0828  0.4669
  123DOPC  H18T16927  -0.607   0.292   3.844 -0.8120  2.2109 -0.0802
  123DOPC   C3316928   0.543   1.340   3.034 -0.3404 -0.6179 -0.0026
  123DOPC   H3X16929   0.533   1.310   3.140  2.6413  0.4174  0.6597
  123DOPC   H3Y16930   0.497   1.440   3.017 -1.3020 -0.6749  1.9060
  123DOPC   C3416931   0.704   1.360   3.025  0.0784  0.3117  0.0928
  123DOPC   H4X16932   0.739   1.430   3.105 -1.5955 -0.5492  1.6559
  123DOPC   H4Y16933   0.727   1.406   2.927 -1.9842 -0.5088 -0.8346
  123DOPC   C3516934   0.780   1.228   3.057  0.7614  0.0207  1.2923
  123DOPC   H5X16935   0.887   1.258   3.051 -0.0206  2.7698 -1.5993
  123DOPC   H5Y16936   0.744   1.150   2.988  0.4413  1.8969 -0.7895
  123DOPC   C3616937   0.757   1.164   3.193  0.4428  0.0386 -0.8973
  123DOPC   H6X16938   0.781   1.235   3.275 -0.2882 -0.3981 -0.2990
  123DOPC   H6Y16939   0.653   1.129   3.204  0.5144 -0.3414 -1.3595
  123DOPC   C3716940   0.851   1.043   3.234 -0.1064  0.3416  0.5337
  123DOPC   H7X16941   0.857   0.969   3.152  2.6475  2.0427 -0.9404
  123DOPC   H7Y16942   0.956   1.077   3.239  0.2954 -0.3842 -1.7593
  123DOPC   C3816943   0.804   0.969   3.361 -0.2607  1.0132 -0.2487
  123DOPC   H8X16944   0.701   0.927   3.359  0.4548 -0.8525 -0.1466
  123DOPC   H8Y16945   0.796   1.049   3.438 -3.2852  0.0100  0.6713
  123DOPC   C3916946   0.894   0.861   3.415 -0.1150  0.3646 -0.4357
  123DOPC   H9X16947   0.876   0.755   3.392  0.2109  0.7374 -2.6379
  123DOPC  C31016948   1.006   0.887   3.487  0.5690 -0.5749 -0.2073
  123DOPC  H10X16949   1.067   0.800   3.516  1.2301  0.0763  0.3911
  123DOPC  C31116950   1.057   1.017   3.540  0.4137  0.6493  0.5178
  123DOPC  H11X16951   1.027   1.107   3.484  2.4841  0.2496 -1.3647
  123DOPC  H11Y16952   1.168   1.006   3.548  0.1458 -1.0418  3.4177
  123DOPC  C31216953   1.023   1.044   3.685 -0.3529 -0.2576 -0.3915
  123DOPC  H12X16954   0.912   1.049   3.696 -0.1634  0.1393  1.8714
  123DOPC  H12Y16955   1.064   1.144   3.712 -0.4545 -0.3649  0.1916
  123DOPC  C31316956   1.091   0.958   3.797 -0.3507 -0.2069  0.3981
  123DOPC  H13X16957   1.061   0.858   3.761  1.7194 -1.1629  1.1816
  123DOPC  H13Y16958   1.202   0.967   3.797 -0.4135  0.7522 -0.7957
  123DOPC  C31416959   1.027   0.999   3.930 -0.3970 -0.1494  0.0758
  123DOPC  H14X16960   1.057   1.098   3.970  0.0338 -0.8483  1.5402
  123DOPC  H14Y16961   0.916   1.007   3.924 -0.3522  0.0617 -0.6547
  123DOPC  C31516962   1.062   0.891   4.031  0.0973  0.2970  0.1040
  123DOPC  H15X16963   1.167   0.855   4.030 -0.8145 -2.6047 -0.6655
  123DOPC  H15Y16964   1.012   0.799   3.994 -0.6524 -0.7649  3.4564
  123DOPC  C31616965   1.014   0.918   4.181 -0.7222 -0.2584  0.5876
  123DOPC  H16X16966   1.096   0.982   4.220 -1.1660  0.2764  0.6635
  123DOPC  H16Y16967   0.925   0.985   4.181  0.5944  1.5773 -0.0824
  123DOPC  C31716968   1.016   0.793   4.271 -0.0487 -0.1613  0.3819
  123DOPC  H17X16969   1.111   0.735   4.269  0.4836  0.7053 -1.8910
  123DOPC  H17Y16970   1.005   0.836   4.373 -3.8782  1.0509 -0.3941
  123DOPC  C31816971   0.900   0.696   4.266  0.1583  0.2890  0.2979
  123DOPC  H18X16972   0.892   0.620   4.347  1.7707  0.3875  0.5916
  123DOPC  H18Y16973   0.805   0.753   4.272 -0.2394  0.1108 -2.9492
  123DOPC  H18Z16974   0.903   0.643   4.169 -0.3293  0.2980  0.2740
  124DOPC     N16975   3.732   3.282   1.681  0.2072 -0.7118  0.7252
  124DOPC   C1216976   3.742   3.323   1.822 -0.1824 -0.8315  0.1947
  124DOPC  H12A16977   3.765   3.238   1.884 -0.9830  0.2831  2.1403
  124DOPC  H12B16978   3.651   3.365   1.863 -0.5291 -1.6022  0.2398
  124DOPC   C1316979   3.684   3.403   1.602 -0.2312 -0.1488 -0.6343
  124DOPC  H13A16980   3.762   3.476   1.588 -2.0424  1.7247 -1.4219
  124DOPC  H13B16981   3.668   3.375   1.499 -0.9056  2.4897 -1.3095
  124DOPC  H13C16982   3.594   3.448   1.641  1.4243  1.9048  1.0946
  124DOPC   C1416983   3.638   3.174   1.666  0.0161  0.7706 -0.3080
  124DOPC  H14A16984   3.610   3.153   1.564  1.8732  0.3349 -0.7786
  124DOPC  H14B16985   3.675   3.079   1.703 -0.4454  0.7092 -0.0002
  124DOPC  H14C16986   3.551   3.202   1.723  0.0392 -2.8482  1.7964
  124DOPC   C1516987   3.855   3.239   1.606  0.3169  0.5345  0.2318
  124DOPC  H15A16988   3.831   3.194   1.511  1.8028  0.5708 -0.1717
  124DOPC  H15B16989   3.902   3.163   1.668 -2.0416  0.8560  2.6452
  124DOPC  H15C16990   3.919   3.325   1.598 -0.2863  0.8921 -0.7965
  124DOPC   C1116991   3.858   3.422   1.841  0.4595  0.5331 -1.2359
  124DOPC  H11A16992   3.877   3.430   1.951 -1.2047  0.5246 -0.9288
  124DOPC  H11B16993   3.954   3.380   1.803  0.1067 -1.8629  0.3144
  124DOPC     P16994   3.740   3.652   1.858 -0.3858  0.3862 -0.0332
  124DOPC   O1316995   3.721   3.615   2.000 -0.3900 -0.2279 -0.0592
  124DOPC   O1416996   3.617   3.669   1.780 -0.0540 -0.3397  0.7814
  124DOPC   O1216997   3.834   3.549   1.789  0.1048  0.6664 -0.2409
  124DOPC   O1116998   3.824   3.785   1.846 -0.4813 -0.4529 -0.1549
  124DOPC    C116999   3.966   3.792   1.882  0.3280 -0.7608  0.5795
  124DOPC    HA17000   4.006   3.877   1.823  1.7600 -0.8510  1.3666
  124DOPC    HB17001   4.026   3.702   1.858 -0.1334 -1.4054  1.7541
  124DOPC    C217002   3.995   3.832   2.032  0.6577  0.2971  0.1229
  124DOPC    HS17003   4.104   3.842   2.049  0.7217  0.2249 -0.2489
  124DOPC   O2117004   3.939   3.732   2.125 -0.3154  0.1187 -0.6221
  124DOPC   C2117005   4.008   3.624   2.141 -0.2561  0.5148  0.3816
  124DOPC   O2217006   4.106   3.588   2.076  0.1711  0.2265  0.8126
  124DOPC   C2217007   3.951   3.539   2.254 -0.2487 -0.4528  0.2787
  124DOPC   H2R17008   4.013   3.447   2.256 -0.9898 -0.9525  1.8085
  124DOPC   H2S17009   3.842   3.525   2.237  0.0345  0.4896 -3.0336
  124DOPC    C317010   3.942   3.971   2.077  0.0228  0.2457  0.4945
  124DOPC    HX17011   3.831   3.966   2.078  0.0066 -0.7066 -1.3875
  124DOPC    HY17012   3.978   4.042   1.998 -0.6017  1.0634  0.9312
  124DOPC   O3117013   3.987   4.005   2.212  0.6607 -0.0149 -0.3778
  124DOPC   C3117014   3.919   3.978   2.315  0.1616  0.2281  0.9357
  124DOPC   O3217015   3.805   3.939   2.310  1.1856 -0.1729 -0.2800
  124DOPC   C3217016   4.002   3.992   2.448  0.5321  1.0088  0.2819
  124DOPC   H2X17017   4.099   3.937   2.444  0.6408  1.0545  1.6673
  124DOPC   H2Y17018   4.035   4.098   2.441  1.3984  0.7889  0.8396
  124DOPC   C2317019   3.988   3.590   2.395  0.2643 -0.7310  0.3592
  124DOPC   H3R17020   3.925   3.680   2.411  2.1069  0.7471 -0.4491
  124DOPC   H3S17021   4.095   3.620   2.403  0.3082  1.2414 -4.5095
  124DOPC   C2417022   3.967   3.488   2.511  0.9292 -0.2051 -0.1949
  124DOPC   H4R17023   4.041   3.512   2.591  4.0595 -2.6229 -2.1308
  124DOPC   H4S17024   3.997   3.386   2.478  0.7661 -1.0522  2.1019
  124DOPC   C2517025   3.829   3.454   2.565 -0.4724 -0.0354 -0.3928
  124DOPC   H5R17026   3.774   3.384   2.498  0.9829 -0.3324 -1.3180
  124DOPC   H5S17027   3.764   3.541   2.592  0.3557 -0.2430  2.6778
  124DOPC   C2617028   3.856   3.383   2.700 -0.3133 -0.7255  0.2724
  124DOPC   H6R17029   3.940   3.313   2.679  0.7192  0.5948 -0.1417
  124DOPC   H6S17030   3.765   3.332   2.738 -1.0651  0.7756  0.5655
  124DOPC   C2717031   3.909   3.465   2.819 -0.4704 -0.2591 -0.5070
  124DOPC   H7R17032   3.843   3.551   2.844  0.9313  0.5996  0.3405
  124DOPC   H7S17033   4.015   3.489   2.795 -0.3394 -1.6494 -1.4744
  124DOPC   C2817034   3.916   3.381   2.947  0.1893  0.5162 -1.0695
  124DOPC   H8R17035   3.967   3.282   2.939 -0.9689 -0.2258  0.3155
  124DOPC   H8S17036   3.812   3.346   2.966 -0.2634  2.0243 -0.6383
  124DOPC   C2917037   3.960   3.453   3.066  0.6389  0.2203  0.2560
  124DOPC   H9R17038   3.938   3.561   3.066 -0.1632  0.0928  2.0830
  124DOPC  C21017039   4.017   3.400   3.179 -0.1433  0.4700  0.4351
  124DOPC  H10R17040   4.045   3.471   3.258 -1.4406 -0.9398  2.2420
  124DOPC  C21117041   4.043   3.248   3.216 -0.9709 -0.4359  0.1855
  124DOPC  H11R17042   3.986   3.174   3.156  0.2440 -2.0647  0.9612
  124DOPC  H11S17043   4.019   3.220   3.321 -2.1658 -0.3596 -0.0542
  124DOPC  C21217044   4.188   3.193   3.200 -0.1105  1.1705  0.1789
  124DOPC  H12R17045   4.253   3.262   3.142  1.5896  0.4748  1.1700
  124DOPC  H12S17046   4.183   3.096   3.146 -1.2149  0.7783  0.9361
  124DOPC  C21317047   4.269   3.167   3.329 -0.0223  0.8072 -0.0942
  124DOPC  H13R17048   4.343   3.085   3.315 -1.4838 -0.6449  0.3306
  124DOPC  H13S17049   4.195   3.133   3.406  0.8304  2.1762  1.4028
  124DOPC  C21417050   4.334   3.293   3.374  0.7874 -0.5348  0.0739
  124DOPC  H14R17051   4.253   3.370   3.371 -0.3276 -1.6723  0.0859
  124DOPC  H14S17052   4.421   3.307   3.307  1.3022 -1.3277  0.5725
  124DOPC  C21517053   4.403   3.282   3.514 -0.1283 -0.6150 -0.6775
  124DOPC  H15R17054   4.469   3.193   3.518  0.3677 -0.2701 -1.0775
  124DOPC  H15S17055   4.329   3.267   3.595 -0.1138 -1.1057 -0.7502
  124DOPC  C21617056   4.484   3.409   3.565 -0.0272 -0.0074  0.2489
  124DOPC  H16R17057   4.415   3.496   3.565  1.5686  1.3091 -0.8799
  124DOPC  H16S17058   4.562   3.419   3.487 -1.8257  0.3232 -1.6058
  124DOPC  C21717059   4.533   3.390   3.705 -0.5751  0.1462 -0.4642
  124DOPC  H17R17060   4.609   3.468   3.730 -1.4931  1.4594 -1.6351
  124DOPC  H17S17061   4.591   3.295   3.714 -1.0834 -0.0832  0.5243
  124DOPC  C21817062   4.440   3.393   3.831  0.3096 -1.1615  0.3490
  124DOPC  H18R17063   4.504   3.372   3.919  3.4895  0.4838 -1.4005
  124DOPC  H18S17064   4.369   3.309   3.811  1.3158 -1.5696 -1.8487
  124DOPC  H18T17065   4.392   3.493   3.836  0.5764 -1.0109  0.0119
  124DOPC   C3317066   3.925   3.954   2.567  0.5297 -0.5352 -0.3753
  124DOPC   H3X17067   3.899   3.846   2.568  1.2515 -0.8130 -3.3782
  124DOPC   H3Y17068   3.833   4.015   2.568  1.4438  0.8914 -0.3132
  124DOPC   C3417069   4.006   3.987   2.700 -0.4921 -0.0837  0.1664
  124DOPC   H4X17070   4.037   4.094   2.707  1.3831 -0.6152  0.4189
  124DOPC   H4Y17071   4.093   3.918   2.702 -0.6346 -0.2566  0.3744
  124DOPC   C3517072   3.941   3.951   2.836  0.0258 -0.1050  0.4187
  124DOPC   H5X17073   3.909   3.845   2.829  1.2763 -0.4199 -1.2658
  124DOPC   H5Y17074   3.843   4.004   2.828 -0.6985 -1.6553 -3.5489
  124DOPC   C3617075   4.021   3.989   2.962  0.0222  0.0288 -0.7297
  124DOPC   H6X17076   4.113   3.928   2.974  0.7319  0.9734 -1.2128
  124DOPC   H6Y17077   4.058   4.093   2.971 -1.6837  0.5264  0.9614
  124DOPC   C3717078   3.946   3.974   3.099  0.0221 -0.4494 -0.0082
  124DOPC   H7X17079   3.884   4.066   3.107  2.9074  1.7322 -0.9443
  124DOPC   H7Y17080   3.893   3.877   3.089 -1.6320  0.4114  0.0705
  124DOPC   C3817081   4.037   3.962   3.222 -0.4275  0.3229 -0.7778
  124DOPC   H8X17082   4.081   4.062   3.241  0.4928 -0.0473 -0.9000
  124DOPC   H8Y17083   4.115   3.890   3.190 -0.7468  0.0306 -0.8982
  124DOPC   C3917084   3.971   3.912   3.352  0.0504 -0.4948  0.2297
  124DOPC   H9X17085   3.999   3.807   3.368 -0.6827 -0.8559 -0.7633
  124DOPC  C31017086   3.875   3.978   3.429  0.3303  0.1604  0.2954
  124DOPC  H10X17087   3.831   3.922   3.512 -1.9717  2.6056  0.8719
  124DOPC  C31117088   3.809   4.110   3.399  0.0445 -0.0124 -0.0121
  124DOPC  H11X17089   3.699   4.098   3.392 -0.0441 -0.0390  1.1148
  124DOPC  H11Y17090   3.846   4.151   3.303  0.5397  1.0128  0.6085
  124DOPC  C31217091   3.838   4.219   3.507  0.2360  0.7388  0.5288
  124DOPC  H12X17092   3.818   4.322   3.469 -1.1428 -0.1611 -1.3732
  124DOPC  H12Y17093   3.946   4.221   3.530  0.2690  1.1450  0.3561
  124DOPC  C31317094   3.758   4.214   3.637 -0.4171  0.3187 -0.0221
  124DOPC  H13X17095   3.650   4.208   3.612 -0.6841  1.8675  0.6306
  124DOPC  H13Y17096   3.782   4.125   3.700  1.2500 -1.0865 -2.4798
  124DOPC  C31417097   3.780   4.340   3.721  0.2450 -0.4365 -0.2719
  124DOPC  H14X17098   3.888   4.365   3.722  0.0765  0.2868 -0.1882
  124DOPC  H14Y17099   3.719   4.423   3.680  0.5005  0.2363  0.6817
  124DOPC  C31517100   3.738   4.297   3.859  0.1223 -0.2655 -0.3295
  124DOPC  H15X17101   3.767   4.370   3.936  1.8167 -0.4516 -0.7434
  124DOPC  H15Y17102   3.798   4.207   3.886  1.4637  1.0866  1.3471
  124DOPC  C31617103   3.591   4.259   3.870 -0.1660  0.3287 -0.1364
  124DOPC  H16X17104   3.528   4.341   3.832  0.3897  0.6734 -0.3328
  124DOPC  H16Y17105   3.569   4.168   3.810  0.3137 -0.3645  0.7121
  124DOPC  C31717106   3.556   4.224   4.015 -0.0342  0.0266  0.0949
  124DOPC  H17X17107   3.594   4.123   4.043 -0.5620 -0.1306  0.2625
  124DOPC  H17Y17108   3.610   4.282   4.092  0.1742 -1.5843  1.2156
  124DOPC  C31817109   3.409   4.239   4.057  0.5999 -0.4172 -0.1923
  124DOPC  H18X17110   3.339   4.185   3.990  0.0725 -1.3778  1.1001
  124DOPC  H18Y17111   3.390   4.202   4.160  0.1225 -0.7530 -0.3973
  124DOPC  H18Z17112   3.372   4.343   4.040 -1.1703 -1.0989 -0.6913
  125DOPC     N17113   3.424   6.464   1.876  0.4892  0.0913  0.1462
  125DOPC   C1217114   3.383   6.323   1.848  0.1333  0.1859  0.0728
  125DOPC  H12A17115   3.275   6.322   1.836  0.3585  0.1553 -2.6949
  125DOPC  H12B17116   3.403   6.255   1.929  0.7101  0.6482  0.3283
  125DOPC   C1317117   3.363   6.524   1.995 -0.0770 -0.6962  0.7984
  125DOPC  H13A17118   3.394   6.626   2.010 -0.7007 -0.4828  0.6439
  125DOPC  H13B17119   3.255   6.520   1.996 -0.0956 -0.3869  2.0928
  125DOPC  H13C17120   3.391   6.472   2.086 -0.2445  2.7297  3.0099
  125DOPC   C1417121   3.370   6.537   1.758  0.6445 -0.3942 -0.5344
  125DOPC  H14A17122   3.368   6.642   1.783 -2.8863 -0.6095  0.6660
  125DOPC  H14B17123   3.424   6.514   1.666  0.5416  0.4041 -0.7980
  125DOPC  H14C17124   3.266   6.517   1.735 -0.1096  1.8405  0.6967
  125DOPC   C1517125   3.572   6.497   1.885  0.5485 -0.0211  1.1365
  125DOPC  H15A17126   3.633   6.459   1.804 -1.9814 -0.0312 -0.9103
  125DOPC  H15B17127   3.610   6.445   1.972  0.4025 -2.2598 -0.0434
  125DOPC  H15C17128   3.583   6.604   1.892  0.9859 -0.1095  1.8348
  125DOPC   C1117129   3.427   6.255   1.718 -0.4851 -0.0386  0.1237
  125DOPC  H11A17130   3.371   6.160   1.715 -0.1104 -0.2650  0.1475
  125DOPC  H11B17131   3.404   6.307   1.623 -0.2405  0.3591  0.2804
  125DOPC     P17132   3.624   6.118   1.837 -0.4998  0.0674  0.2206
  125DOPC   O1317133   3.763   6.154   1.878  0.2635 -0.2999 -0.1940
  125DOPC   O1417134   3.619   5.993   1.762 -0.6827 -0.3545 -0.5404
  125DOPC   O1217135   3.565   6.227   1.747 -0.5302  0.2109  0.7229
  125DOPC   O1117136   3.527   6.120   1.958 -0.0743  0.4060 -0.1985
  125DOPC    C117137   3.526   6.008   2.048 -0.7873 -0.4211 -0.6413
  125DOPC    HA17138   3.612   6.004   2.118 -2.3854 -4.4104  1.3511
  125DOPC    HB17139   3.545   5.913   1.994  0.1223  0.1058 -1.2848
  125DOPC    C217140   3.386   5.986   2.114  0.4256  0.5026  0.7091
  125DOPC    HS17141   3.324   5.943   2.031 -0.1823  0.7061  1.0498
  125DOPC   O2117142   3.323   6.106   2.149  0.2004  0.0273  0.0470
  125DOPC   C2117143   3.207   6.110   2.200  0.0799 -0.6291 -0.5824
  125DOPC   O2217144   3.117   6.025   2.196 -0.0488  0.3342  0.1603
  125DOPC   C2217145   3.193   6.242   2.273 -0.3283 -0.9877 -0.4052
  125DOPC   H2R17146   3.176   6.321   2.197  1.2030  0.7572  0.9785
  125DOPC   H2S17147   3.289   6.274   2.318 -1.1972 -0.8686  1.4661
  125DOPC    C317148   3.398   5.885   2.225  0.3757 -0.3472  0.6856
  125DOPC    HX17149   3.422   5.788   2.176  1.8644 -1.2289  2.9441
  125DOPC    HY17150   3.298   5.863   2.267 -0.4578  0.6133 -0.7220
  125DOPC   O3117151   3.496   5.914   2.326 -0.7152  0.3915  0.5150
  125DOPC   C3117152   3.462   5.935   2.450 -0.2606 -1.2761 -0.3327
  125DOPC   O3217153   3.346   5.932   2.490 -0.1638  0.7404 -0.0201
  125DOPC   C3217154   3.582   5.960   2.543  0.7623  0.4028  0.0786
  125DOPC   H2X17155   3.657   5.896   2.492 -1.1744 -2.2013  0.2946
  125DOPC   H2Y17156   3.615   6.066   2.535  0.9653  0.4306  1.0767
  125DOPC   C2317157   3.077   6.252   2.380 -0.0926  0.0098  0.8143
  125DOPC   H3R17158   2.988   6.214   2.325  1.5643 -1.2523 -1.1840
  125DOPC   H3S17159   3.058   6.360   2.396  1.2656  0.6299 -1.2349
  125DOPC   C2417160   3.115   6.170   2.504 -0.6609 -0.3206  0.0371
  125DOPC   H4R17161   3.196   6.225   2.557 -2.3310  2.4159 -0.0712
  125DOPC   H4S17162   3.168   6.079   2.467  1.8593  1.6136 -1.5476
  125DOPC   C2517163   2.983   6.158   2.579 -0.1370  0.5823 -1.3491
  125DOPC   H5R17164   2.914   6.112   2.506 -0.8164  1.3631 -1.2246
  125DOPC   H5S17165   2.939   6.259   2.599  0.3526  0.1584  2.6131
  125DOPC   C2617166   3.004   6.090   2.713  0.0753  0.1104 -0.1788
  125DOPC   H6R17167   3.051   6.164   2.781  2.1265  1.9088 -3.2952
  125DOPC   H6S17168   3.067   5.999   2.700  1.0966  0.7815 -0.0310
  125DOPC   C2717169   2.876   6.054   2.784 -0.2372  0.3802 -0.3400
  125DOPC   H7R17170   2.823   5.964   2.744  0.8965  0.4804 -2.1975
  125DOPC   H7S17171   2.797   6.131   2.771 -2.1977 -1.4572  0.1377
  125DOPC   C2817172   2.901   6.036   2.940  0.3872 -0.3505 -0.3919
  125DOPC   H8R17173   2.796   6.025   2.974  0.0798  2.3866 -0.1760
  125DOPC   H8S17174   2.930   6.137   2.978  1.8408  0.0397 -2.3675
  125DOPC   C2917175   2.999   5.924   2.971  0.4700  0.1075 -0.5308
  125DOPC   H9R17176   3.032   5.864   2.885 -0.5173 -1.0490 -0.1333
  125DOPC  C21017177   3.066   5.897   3.085 -0.1142  0.0405  0.4741
  125DOPC  H10R17178   3.134   5.810   3.085 -1.6298 -1.2386 -1.8271
  125DOPC  C21117179   3.066   5.974   3.211  0.5047 -0.2280  0.3419
  125DOPC  H11R17180   3.000   6.064   3.216  2.2606  1.0452  2.7865
  125DOPC  H11S17181   3.168   6.018   3.214 -0.0882  1.4174 -1.4020
  125DOPC  C21217182   3.028   5.879   3.319 -0.1264  0.1721 -0.7209
  125DOPC  H12R17183   3.107   5.802   3.315 -0.1239 -0.1046  2.0761
  125DOPC  H12S17184   2.934   5.823   3.300 -1.2293  1.1499  1.3616
  125DOPC  C21317185   3.020   5.932   3.467 -0.6702 -1.3238  0.6470
  125DOPC  H13R17186   2.940   6.006   3.489  0.9765  0.6324  0.3067
  125DOPC  H13S17187   3.109   5.994   3.490 -0.0671 -1.5283 -1.0179
  125DOPC  C21417188   3.020   5.817   3.564 -0.3507  0.0793 -0.1438
  125DOPC  H14R17189   3.119   5.766   3.565  0.8415  2.2850  0.6543
  125DOPC  H14S17190   2.935   5.756   3.527  1.2276 -0.7284 -2.7410
  125DOPC  C21517191   2.985   5.872   3.704  0.0107 -0.4093 -0.4852
  125DOPC  H15R17192   2.884   5.919   3.703  0.2586  0.2665  1.5432
  125DOPC  H15S17193   3.072   5.937   3.727 -0.9710  0.1132  2.2403
  125DOPC  C21617194   2.959   5.769   3.817  0.9206  0.9904 -0.6356
  125DOPC  H16R17195   3.033   5.686   3.814 -1.4541 -1.3099  0.6077
  125DOPC  H16S17196   2.862   5.720   3.795  0.7100 -1.2773  4.2417
  125DOPC  C21717197   2.919   5.824   3.951 -0.0818 -1.3252 -0.3427
  125DOPC  H17R17198   2.826   5.880   3.926 -0.0342 -1.7896 -1.6062
  125DOPC  H17S17199   2.982   5.914   3.969  0.0750 -1.7219  1.2706
  125DOPC  C21817200   2.911   5.724   4.065 -0.2016  0.3919 -0.2325
  125DOPC  H18R17201   2.823   5.660   4.048 -0.3930  0.7192 -0.4831
  125DOPC  H18S17202   2.911   5.770   4.167 -0.8273 -1.0086  0.4156
  125DOPC  H18T17203   2.998   5.656   4.054 -0.6386 -0.6030  1.8356
  125DOPC   C3317204   3.543   5.921   2.690 -0.2637 -0.4966 -0.8985
  125DOPC   H3X17205   3.643   5.912   2.739 -0.3737  1.4913 -0.2040
  125DOPC   H3Y17206   3.476   5.833   2.695 -0.3368 -0.4106 -0.0572
  125DOPC   C3417207   3.461   6.026   2.771 -0.2693  0.4168  0.4390
  125DOPC   H4X17208   3.433   5.993   2.873 -2.6077  1.3241  0.1605
  125DOPC   H4Y17209   3.365   6.045   2.718 -1.3752 -2.4260  1.2353
  125DOPC   C3517210   3.540   6.155   2.782  0.1149 -0.3939  0.4377
  125DOPC   H5X17211   3.586   6.178   2.683 -1.8470  1.3102 -0.1478
  125DOPC   H5Y17212   3.613   6.141   2.864  0.1775 -0.2414  0.4083
  125DOPC   C3617213   3.455   6.280   2.833  0.6246 -0.2595 -0.5373
  125DOPC   H6X17214   3.525   6.366   2.834 -1.2839  1.4204  2.5712
  125DOPC   H6Y17215   3.373   6.293   2.759  0.2619 -0.5645 -0.1961
  125DOPC   C3717216   3.391   6.262   2.970  0.4320 -0.1006 -0.3776
  125DOPC   H7X17217   3.351   6.159   2.975 -1.0782  0.4595 -0.2596
  125DOPC   H7Y17218   3.476   6.274   3.040  1.3750  0.2716 -1.5556
  125DOPC   C3817219   3.285   6.375   3.003  0.1836 -0.5731  0.2147
  125DOPC   H8X17220   3.209   6.381   2.922 -0.4335 -1.9587  0.6561
  125DOPC   H8Y17221   3.345   6.468   3.017  2.3782 -1.9268  0.3043
  125DOPC   C3917222   3.194   6.337   3.120 -0.6067 -0.0208  0.4098
  125DOPC   H9X17223   3.153   6.236   3.108 -0.0013 -0.3715  1.1887
  125DOPC  C31017224   3.198   6.391   3.241  0.1051  0.1874 -0.4667
  125DOPC  H10X17225   3.136   6.353   3.323  0.1915 -0.9561 -0.9121
  125DOPC  C31117226   3.265   6.520   3.277  0.3022  0.0908 -0.4578
  125DOPC  H11X17227   3.347   6.544   3.207  0.5576 -0.9014 -0.5235
  125DOPC  H11Y17228   3.312   6.508   3.377 -1.2544  0.0340  0.3101
  125DOPC  C31217229   3.176   6.645   3.265 -0.3776 -0.0125 -0.3137
  125DOPC  H12X17230   3.106   6.637   3.178  0.7748 -1.2409 -1.1771
  125DOPC  H12Y17231   3.237   6.736   3.245  0.5406 -0.7334 -0.8998
  125DOPC  C31317232   3.095   6.659   3.390  0.0045 -0.0649  1.2733
  125DOPC  H13X17233   3.056   6.558   3.417  1.6581 -0.6477  1.6629
  125DOPC  H13Y17234   3.168   6.680   3.471 -1.2486  0.2183  2.3666
  125DOPC  C31417235   2.988   6.768   3.378 -0.5018 -0.3503  0.7702
  125DOPC  H14X17236   3.029   6.856   3.323 -2.1923 -0.0411 -0.0503
  125DOPC  H14Y17237   2.898   6.734   3.323 -1.6109 -0.9949  2.8566
  125DOPC  C31517238   2.943   6.823   3.518  0.2469 -0.2499 -0.0472
  125DOPC  H15X17239   3.028   6.873   3.568  0.5549 -1.2674  0.4633
  125DOPC  H15Y17240   2.892   6.750   3.583 -1.6140  0.7426 -0.2978
  125DOPC  C31617241   2.826   6.926   3.507 -0.0092  0.8185  0.0361
  125DOPC  H16X17242   2.849   7.017   3.447  0.3170  0.5749 -0.2071
  125DOPC  H16Y17243   2.739   6.878   3.456  1.2460 -1.2469 -0.2777
  125DOPC  C31717244   2.783   6.979   3.645  0.8552  0.1788  0.8299
  125DOPC  H17X17245   2.780   6.897   3.720  0.1740  0.3018  0.9477
  125DOPC  H17Y17246   2.853   7.049   3.695  1.3892  0.1367  0.1522
  125DOPC  C31817247   2.649   7.056   3.645 -1.0567 -0.4256 -0.3327
  125DOPC  H18X17248   2.656   7.143   3.576  0.2918  0.8359  1.3026
  125DOPC  H18Y17249   2.570   6.984   3.615 -0.5339 -1.9497  1.7165
  125DOPC  H18Z17250   2.642   7.084   3.752 -0.5419 -1.8951  0.1085
  126DOPC     N17251   5.110   5.422   1.563 -0.2238 -0.3405  0.3869
  126DOPC   C1217252   5.214   5.491   1.645 -0.0711 -1.1366  0.6300
  126DOPC  H12A17253   5.317   5.471   1.618 -0.1100 -0.4970 -0.0135
  126DOPC  H12B17254   5.217   5.459   1.749 -1.5356 -2.8332  0.1909
  126DOPC   C1317255   5.140   5.278   1.549 -0.1542 -0.6177 -0.5022
  126DOPC  H13A17256   5.234   5.261   1.499  0.2445 -0.4846  0.1951
  126DOPC  H13B17257   5.145   5.227   1.644  1.6705  0.0351 -0.2169
  126DOPC  H13C17258   5.060   5.230   1.494 -1.2142 -0.0381  0.4944
  126DOPC   C1417259   5.103   5.474   1.419  0.2646 -0.1651 -0.2894
  126DOPC  H14A17260   5.204   5.483   1.382 -0.1048  1.1720 -1.0332
  126DOPC  H14B17261   5.051   5.408   1.351  2.2782 -2.2881  0.1106
  126DOPC  H14C17262   5.066   5.575   1.413  1.0133  0.1111 -0.2980
  126DOPC   C1517263   4.980   5.448   1.625 -0.1169 -0.1009  0.0629
  126DOPC  H15A17264   4.901   5.433   1.553 -1.2769  0.2388  1.2228
  126DOPC  H15B17265   4.977   5.545   1.674  2.5865 -0.1749  0.5271
  126DOPC  H15C17266   4.965   5.380   1.708 -1.8259  0.1529  0.0010
  126DOPC   C1117267   5.202   5.647   1.642  0.1946 -0.1958  0.3095
  126DOPC  H11A17268   5.300   5.682   1.683 -0.3025  1.6850 -0.0344
  126DOPC  H11B17269   5.198   5.683   1.537 -0.5697 -0.3907  0.2691
  126DOPC     P17270   5.105   5.741   1.857  0.0710  0.2155 -0.0636
  126DOPC   O1317271   4.974   5.758   1.915 -0.3725  0.4800 -0.1701
  126DOPC   O1417272   5.194   5.859   1.859 -0.1733 -0.1589 -0.3877
  126DOPC   O1217273   5.090   5.694   1.712 -0.0139  0.5070  0.1286
  126DOPC   O1117274   5.194   5.621   1.918  0.4523 -0.6614 -0.2880
  126DOPC    C117275   5.129   5.511   1.985  0.1462  0.1738  0.1065
  126DOPC    HA17276   5.201   5.427   1.978 -0.8782 -0.6473 -0.9367
  126DOPC    HB17277   5.040   5.473   1.930  0.1758 -0.2038  0.3142
  126DOPC    C217278   5.104   5.534   2.135 -0.6784 -0.1084 -0.5664
  126DOPC    HS17279   5.026   5.613   2.138 -0.1105  0.4938 -1.1374
  126DOPC   O2117280   5.226   5.584   2.203  0.0163  0.6666  0.2759
  126DOPC   C2117281   5.206   5.665   2.303 -0.1906  0.4412 -0.5283
  126DOPC   O2217282   5.099   5.711   2.337  0.0034  0.5828 -0.9498
  126DOPC   C2217283   5.334   5.685   2.390 -0.2284 -0.2217 -0.3725
  126DOPC   H2R17284   5.298   5.714   2.491 -0.4595  0.4233 -0.6406
  126DOPC   H2S17285   5.378   5.778   2.350  0.0771 -0.1376  0.1471
  126DOPC    C317286   5.042   5.410   2.211  0.7183  0.2144  0.0967
  126DOPC    HX17287   5.113   5.326   2.193 -0.8043 -1.4252  1.4272
  126DOPC    HY17288   4.946   5.377   2.167  1.3909  1.0530 -2.1470
  126DOPC   O3117289   5.038   5.422   2.352 -0.1433 -0.1052  0.3774
  126DOPC   C3117290   4.932   5.478   2.405  0.4626  0.0119  0.0366
  126DOPC   O3217291   4.839   5.537   2.348 -0.8988  0.7157 -0.2205
  126DOPC   C3217292   4.953   5.468   2.555  0.7708  0.1347 -0.1171
  126DOPC   H2X17293   4.880   5.399   2.602  2.0629 -0.3778  1.2318
  126DOPC   H2Y17294   5.056   5.432   2.572 -0.0292 -3.1647 -1.5280
  126DOPC   C2317295   5.438   5.570   2.395 -0.6610 -0.0842  0.0434
  126DOPC   H3R17296   5.532   5.607   2.442  0.1999 -1.3107 -0.6577
  126DOPC   H3S17297   5.469   5.548   2.291 -0.2228 -1.3766  0.4347
  126DOPC   C2417298   5.388   5.450   2.485  0.0314  0.1408 -0.5561
  126DOPC   H4R17299   5.451   5.362   2.458 -0.1482 -0.7631  1.7491
  126DOPC   H4S17300   5.287   5.420   2.450 -0.5692  1.9746 -0.4810
  126DOPC   C2517301   5.398   5.485   2.630 -0.3751  0.9976 -0.1614
  126DOPC   H5R17302   5.330   5.571   2.646 -1.2252  0.5746 -1.3797
  126DOPC   H5S17303   5.503   5.512   2.657 -0.0536 -0.1653 -0.1869
  126DOPC   C2617304   5.348   5.384   2.739 -0.1741  0.2242 -0.3401
  126DOPC   H6R17305   5.405   5.289   2.742 -1.2651 -0.5665 -2.3693
  126DOPC   H6S17306   5.240   5.362   2.730  0.0977 -1.0615 -0.7034
  126DOPC   C2717307   5.352   5.452   2.874  0.0898  0.6606  0.4344
  126DOPC   H7R17308   5.273   5.530   2.883 -0.1250  0.4898  0.0417
  126DOPC   H7S17309   5.447   5.506   2.895 -0.2700  1.6566 -0.4114
  126DOPC   C2817310   5.336   5.360   2.992 -0.3543  0.8384  0.6161
  126DOPC   H8R17311   5.244   5.299   2.979 -1.4987  2.1081  2.2439
  126DOPC   H8S17312   5.315   5.419   3.084  1.9243  2.8425 -0.0491
  126DOPC   C2917313   5.452   5.272   3.035  0.3420  0.3565  0.4117
  126DOPC   H9R17314   5.545   5.298   2.981  0.9649  0.8720  1.6947
  126DOPC  C21017315   5.448   5.191   3.144 -0.0664 -0.1197  0.1241
  126DOPC  H10R17316   5.542   5.141   3.173  0.9611  0.5771 -1.8883
  126DOPC  C21117317   5.337   5.151   3.233  0.0956 -0.3153  0.0881
  126DOPC  H11R17318   5.243   5.207   3.211  0.4297 -0.4909 -1.9144
  126DOPC  H11S17319   5.370   5.147   3.339  0.8807 -2.0301 -0.1829
  126DOPC  C21217320   5.293   5.003   3.213 -0.5733 -0.0667  1.2010
  126DOPC  H12R17321   5.365   4.926   3.248 -0.2948 -0.6120 -0.4920
  126DOPC  H12S17322   5.297   4.976   3.106  0.4237  1.9422  0.6774
  126DOPC  C21317323   5.155   4.969   3.265 -0.3846  0.7686 -0.0961
  126DOPC  H13R17324   5.077   5.042   3.237 -1.6842 -0.0402  1.2644
  126DOPC  H13S17325   5.170   4.983   3.374 -0.7051 -0.7577  0.1632
  126DOPC  C21417326   5.105   4.816   3.253  0.6774  0.5616  0.5393
  126DOPC  H14R17327   5.004   4.800   3.296 -0.0537  2.1967 -0.4859
  126DOPC  H14S17328   5.181   4.750   3.300  1.6819  1.6562  0.4973
  126DOPC  C21517329   5.090   4.763   3.105 -0.1203  0.0511  0.5324
  126DOPC  H15R17330   5.148   4.819   3.028 -1.3300 -0.8141 -1.0606
  126DOPC  H15S17331   4.984   4.778   3.077  0.2346  0.7633 -0.4806
  126DOPC  C21617332   5.126   4.616   3.096 -0.0336 -0.3653  0.5535
  126DOPC  H16R17333   5.064   4.550   3.161  0.8794 -0.4892  1.3282
  126DOPC  H16S17334   5.233   4.603   3.123  0.0569 -1.5400 -0.2972
  126DOPC  C21717335   5.122   4.564   2.949 -0.2999  0.2415  0.1434
  126DOPC  H17R17336   5.210   4.601   2.892 -0.2697 -1.9489 -1.3603
  126DOPC  H17S17337   5.021   4.584   2.907 -1.8064  0.2009  3.3873
  126DOPC  C21817338   5.139   4.409   2.942  0.0042  0.0796  0.2057
  126DOPC  H18R17339   5.222   4.382   3.011 -0.1220  3.9450  2.1337
  126DOPC  H18S17340   5.160   4.372   2.840 -1.3280  3.4975 -1.4655
  126DOPC  H18T17341   5.051   4.353   2.979  0.9657 -0.9415  1.0356
  126DOPC   C3317342   4.919   5.608   2.613  0.2054 -0.5226  0.8992
  126DOPC   H3X17343   4.821   5.643   2.574  0.9935  0.2025 -0.5034
  126DOPC   H3Y17344   4.989   5.676   2.559 -1.5139 -0.6361 -1.6589
  126DOPC   C3417345   4.935   5.611   2.766  0.3597 -0.1268 -0.7330
  126DOPC   H4X17346   5.023   5.550   2.795  0.4413  0.7018  0.8727
  126DOPC   H4Y17347   4.850   5.554   2.809  1.1391  0.0241  1.0809
  126DOPC   C3517348   4.936   5.746   2.821  0.3496 -0.1140  0.0619
  126DOPC   H5X17349   4.831   5.773   2.797 -0.1910 -0.8168  1.5272
  126DOPC   H5Y17350   5.013   5.814   2.781  1.1727 -1.3671 -0.5338
  126DOPC   C3617351   4.948   5.728   2.976  0.2802  0.1162 -0.2427
  126DOPC   H6X17352   4.901   5.812   3.032 -1.6697 -1.5012  0.6281
  126DOPC   H6Y17353   4.886   5.641   3.004  3.7064 -1.9688  1.6280
  126DOPC   C3717354   5.089   5.710   3.038 -0.2721  0.1176 -0.4438
  126DOPC   H7X17355   5.127   5.620   2.985 -0.5042  0.4343 -1.1620
  126DOPC   H7Y17356   5.152   5.797   3.008 -0.1709 -0.2006 -1.1709
  126DOPC   C3817357   5.080   5.672   3.187 -0.2237 -0.0569  0.5188
  126DOPC   H8X17358   4.987   5.616   3.213 -0.8423  0.3235 -0.8042
  126DOPC   H8Y17359   5.069   5.773   3.232 -1.1059  0.3626 -0.5992
  126DOPC   C3917360   5.199   5.598   3.248 -0.0754  0.1521 -0.1299
  126DOPC   H9X17361   5.293   5.615   3.194 -0.8631 -0.1791 -1.6692
  126DOPC  C31017362   5.189   5.528   3.369  0.6558  0.5638 -0.0733
  126DOPC  H10X17363   5.272   5.462   3.398  4.0987  4.9202  1.0490
  126DOPC  C31117364   5.059   5.515   3.448 -0.2176  0.6638  0.7476
  126DOPC  H11X17365   5.058   5.409   3.480  0.5985 -0.3975 -2.3727
  126DOPC  H11Y17366   4.968   5.526   3.385  0.3181 -1.5925 -0.5487
  126DOPC  C31217367   5.062   5.616   3.561  0.1659  0.2558 -0.1160
  126DOPC  H12X17368   5.062   5.715   3.510 -0.2430 -0.1818 -0.9884
  126DOPC  H12Y17369   5.160   5.600   3.612  1.7407  1.8317 -2.4165
  126DOPC  C31317370   4.941   5.594   3.656  0.9780 -0.6496 -0.3065
  126DOPC  H13X17371   4.954   5.659   3.744  0.8253  0.5695 -1.1594
  126DOPC  H13Y17372   4.845   5.625   3.609  0.2608  0.5288  1.8325
  126DOPC  C31417373   4.921   5.450   3.702  0.6125  0.2830 -0.0218
  126DOPC  H14X17374   4.829   5.455   3.764  1.5122  3.6723  1.2508
  126DOPC  H14Y17375   4.890   5.407   3.605  1.4881  1.9553 -1.1004
  126DOPC  C31517376   5.032   5.377   3.775 -0.4155  0.3324  0.5352
  126DOPC  H15X17377   5.074   5.440   3.856 -0.1834 -0.0718  0.7338
  126DOPC  H15Y17378   5.122   5.370   3.709 -0.0056  1.0229  1.0094
  126DOPC  C31617379   4.998   5.245   3.834  0.5099 -0.4273  0.4624
  126DOPC  H16X17380   5.086   5.211   3.892  1.4796 -1.8779 -1.7179
  126DOPC  H16Y17381   4.918   5.258   3.910 -0.9003 -1.3742 -0.7759
  126DOPC  C31717382   4.958   5.143   3.730 -0.4460 -0.4167  0.2062
  126DOPC  H17X17383   4.916   5.059   3.790  0.7321 -0.4831  0.9778
  126DOPC  H17Y17384   4.873   5.174   3.665 -0.8807 -3.0718 -0.5969
  126DOPC  C31817385   5.071   5.095   3.639  0.6088 -0.5593  0.2367
  126DOPC  H18X17386   5.030   5.010   3.580 -2.4242  0.5864  0.5591
  126DOPC  H18Y17387   5.108   5.173   3.569 -0.0024 -0.5327 -0.0590
  126DOPC  H18Z17388   5.152   5.042   3.695  0.5344 -1.7567 -0.7345
  127DOPC     N17389   4.012   6.044   1.292 -0.3226 -0.9042  0.3908
  127DOPC   C1217390   4.026   6.042   1.448  0.3743  0.1506 -0.4999
  127DOPC  H12A17391   3.968   5.966   1.497  0.3933  1.3610  1.5146
  127DOPC  H12B17392   3.977   6.135   1.472 -1.7855 -0.5067 -2.1040
  127DOPC   C1317393   4.085   5.933   1.234  0.2142 -0.4175 -0.4741
  127DOPC  H13A17394   4.074   5.949   1.128  1.2830 -0.7228 -0.6342
  127DOPC  H13B17395   4.191   5.941   1.250  0.0978 -2.4788  1.9163
  127DOPC  H13C17396   4.043   5.837   1.258 -1.3681  0.0873 -1.0740
  127DOPC   C1417397   4.073   6.174   1.245 -0.0768 -0.3299  0.1913
  127DOPC  H14A17398   4.170   6.190   1.290 -0.1049 -0.3187  0.2496
  127DOPC  H14B17399   4.087   6.194   1.140  0.5870  2.1401  0.6728
  127DOPC  H14C17400   4.017   6.257   1.287 -1.0083 -1.4548  1.2350
  127DOPC   C1517401   3.873   6.043   1.248 -0.2531  0.5876  0.0241
  127DOPC  H15A17402   3.861   6.058   1.142 -1.2888  0.7146  0.1524
  127DOPC  H15B17403   3.824   6.127   1.293  1.6573  0.3390  2.8700
  127DOPC  H15C17404   3.812   5.961   1.283 -2.9695  1.6545 -1.9294
  127DOPC   C1117405   4.165   6.025   1.505  0.4416  0.4699  0.7476
  127DOPC  H11A17406   4.237   6.093   1.454  0.6930 -0.5251 -0.2514
  127DOPC  H11B17407   4.184   6.053   1.611  0.9641 -0.5439  0.9354
  127DOPC     P17408   4.120   5.781   1.592 -0.1873  0.1900 -0.2713
  127DOPC   O1317409   4.197   5.656   1.615 -0.4763 -0.0081 -0.5256
  127DOPC   O1417410   3.983   5.773   1.541 -0.2493  0.5478  0.5837
  127DOPC   O1217411   4.204   5.891   1.503  0.3694 -0.2146 -0.4976
  127DOPC   O1117412   4.106   5.851   1.731 -0.8004 -0.3404 -0.1445
  127DOPC    C117413   4.022   5.796   1.833  0.1220  0.7848  0.3236
  127DOPC    HA17414   4.056   5.701   1.879 -4.0416  0.2077  2.7384
  127DOPC    HB17415   3.921   5.783   1.787 -0.2873  3.3237  0.3912
  127DOPC    C217416   4.009   5.897   1.946 -0.6111 -0.6543 -0.2777
  127DOPC    HS17417   3.963   5.991   1.910  0.1357  0.1007  0.6985
  127DOPC   O2117418   4.141   5.919   1.999 -0.5097 -0.1937 -0.4274
  127DOPC   C2117419   4.166   6.047   2.044 -0.2846 -0.0196  0.3138
  127DOPC   O2217420   4.082   6.136   2.053  0.1026 -0.1622  0.3055
  127DOPC   C2217421   4.317   6.053   2.086  0.3460  0.3528  0.4742
  127DOPC   H2R17422   4.380   6.045   1.994 -0.4513  0.2286 -0.0724
  127DOPC   H2S17423   4.331   5.956   2.138 -0.0275  0.6390  1.1239
  127DOPC    C317424   3.903   5.835   2.041 -0.3667  0.3590 -0.5225
  127DOPC    HX17425   3.918   5.732   2.079 -0.3988  0.6317  0.2421
  127DOPC    HY17426   3.807   5.845   1.986 -0.8903 -0.5283  0.2144
  127DOPC   O3117427   3.887   5.921   2.159 -0.1157 -0.5865  0.0861
  127DOPC   C3117428   3.980   5.898   2.263  0.8955  0.8582 -0.0163
  127DOPC   O3217429   4.054   5.800   2.266  0.4411 -0.4217 -0.0816
  127DOPC   C3217430   3.976   6.005   2.374  0.6107 -0.3252  0.2837
  127DOPC   H2X17431   4.067   6.067   2.360  0.6733 -0.6929 -1.0738
  127DOPC   H2Y17432   3.890   6.075   2.366  0.6277 -0.4703 -1.7033
  127DOPC   C2317433   4.368   6.169   2.176 -0.2101  0.0405 -0.5983
  127DOPC   H3R17434   4.319   6.170   2.276 -1.0142 -0.1291 -0.9836
  127DOPC   H3S17435   4.319   6.260   2.134 -1.2483 -0.5484 -0.6993
  127DOPC   C2417436   4.522   6.184   2.177 -0.3782  0.2108  0.2888
  127DOPC   H4R17437   4.542   6.287   2.214  2.2159 -0.3314  0.5866
  127DOPC   H4S17438   4.574   6.169   2.080 -0.0805  0.9507  0.3254
  127DOPC   C2517439   4.596   6.078   2.268  0.2138 -0.1812 -0.2059
  127DOPC   H5R17440   4.702   6.080   2.235  0.1342 -0.3844 -0.4847
  127DOPC   H5S17441   4.560   5.973   2.258 -0.5634  0.0572  0.0389
  127DOPC   C2617442   4.588   6.122   2.411  0.0775  0.5958 -0.2749
  127DOPC   H6R17443   4.481   6.142   2.432  0.2938  0.1504  1.4061
  127DOPC   H6S17444   4.640   6.219   2.424 -2.2285  2.6421 -4.3523
  127DOPC   C2717445   4.645   6.025   2.516  0.9881 -0.3177  0.3472
  127DOPC   H7R17446   4.753   6.030   2.490  0.6815 -1.3417 -1.2756
  127DOPC   H7S17447   4.618   5.918   2.501  1.0326 -0.3297  0.3504
  127DOPC   C2817448   4.617   6.077   2.658  0.8060  0.5173 -1.1594
  127DOPC   H8R17449   4.633   6.187   2.664  2.7123  0.2492 -0.9692
  127DOPC   H8S17450   4.692   6.032   2.725 -1.5027 -0.1945  1.1202
  127DOPC   C2917451   4.478   6.034   2.701  0.2500 -0.2558 -0.2739
  127DOPC   H9R17452   4.455   5.926   2.703  1.6835 -0.5812 -0.4522
  127DOPC  C21017453   4.370   6.105   2.739  0.2315 -0.6331  0.1216
  127DOPC  H10R17454   4.287   6.052   2.788 -0.0958 -3.4347 -3.0653
  127DOPC  C21117455   4.361   6.258   2.736  0.4764  0.0447  0.7438
  127DOPC  H11R17456   4.286   6.285   2.659  1.0022 -1.8222 -0.4762
  127DOPC  H11S17457   4.456   6.307   2.704 -0.2991  1.1545  0.0561
  127DOPC  C21217458   4.323   6.317   2.872  0.1545 -0.2339  0.1786
  127DOPC  H12R17459   4.372   6.257   2.952  1.3762 -2.3761 -2.0309
  127DOPC  H12S17460   4.213   6.312   2.886 -0.0968  0.9948 -1.1608
  127DOPC  C21317461   4.368   6.462   2.886 -0.2553  0.1864  0.2287
  127DOPC  H13R17462   4.335   6.509   2.790 -1.3638  0.5507  0.7809
  127DOPC  H13S17463   4.479   6.469   2.896 -0.2484  0.1795  0.1548
  127DOPC  C21417464   4.303   6.533   2.999 -0.3699 -0.3851  0.0933
  127DOPC  H14R17465   4.195   6.508   2.997 -0.3311 -0.5963  0.4240
  127DOPC  H14S17466   4.312   6.643   2.988  1.9077 -0.4618  0.5930
  127DOPC  C21517467   4.364   6.487   3.136 -0.1904  0.5509 -0.5839
  127DOPC  H15R17468   4.474   6.497   3.141  0.2544 -3.0363 -0.8159
  127DOPC  H15S17469   4.357   6.377   3.148  0.5805  0.7377  2.1423
  127DOPC  C21617470   4.313   6.553   3.270  0.4382 -0.0916 -0.2778
  127DOPC  H16R17471   4.203   6.540   3.279  0.7471 -1.2675  3.3501
  127DOPC  H16S17472   4.349   6.658   3.260 -0.1794  0.2749  1.0547
  127DOPC  C21717473   4.375   6.511   3.405  0.0422  0.0142  0.3210
  127DOPC  H17R17474   4.482   6.492   3.384 -0.5146 -0.0705 -2.9495
  127DOPC  H17S17475   4.341   6.408   3.428  1.2044 -0.2601  0.8622
  127DOPC  C21817476   4.344   6.605   3.516  0.2172 -0.5162  0.3372
  127DOPC  H18R17477   4.238   6.609   3.547  0.4072 -3.1895  1.6047
  127DOPC  H18S17478   4.384   6.706   3.495 -2.3065  0.2644 -1.1431
  127DOPC  H18T17479   4.396   6.576   3.610  0.9684  1.1188  0.4686
  127DOPC   C3317480   3.979   5.943   2.512  0.2699  0.1116  0.0956
  127DOPC   H3X17481   4.076   5.891   2.528 -0.2089 -0.3656  1.6396
  127DOPC   H3Y17482   3.903   5.863   2.524  2.4844 -2.1469 -0.1635
  127DOPC   C3417483   3.977   6.048   2.624 -0.3228  0.3500 -0.1571
  127DOPC   H4X17484   3.889   6.116   2.614 -0.3145  0.5512  1.0309
  127DOPC   H4Y17485   4.070   6.105   2.604  0.6683 -2.0917 -3.2257
  127DOPC   C3517486   3.973   5.996   2.775 -0.5633 -0.1135  0.7793
  127DOPC   H5X17487   4.057   5.924   2.783 -1.7470 -1.5812  0.3188
  127DOPC   H5Y17488   3.875   5.947   2.795  0.2465 -2.0832  0.1438
  127DOPC   C3617489   4.000   6.107   2.880  0.2906 -0.4310 -0.0522
  127DOPC   H6X17490   4.067   6.184   2.836 -0.2590  0.1542  0.1046
  127DOPC   H6Y17491   3.908   6.158   2.916  0.4811 -0.0969 -0.0325
  127DOPC   C3717492   4.073   6.053   3.005  0.5867  0.4789  0.0651
  127DOPC   H7X17493   4.021   5.959   3.032  2.7520 -0.2061  2.2432
  127DOPC   H7Y17494   4.177   6.031   2.972  0.7715 -0.8996  1.4546
  127DOPC   C3817495   4.055   6.159   3.116  0.1546  0.3193  0.3479
  127DOPC   H8X17496   3.969   6.138   3.184 -1.1044  0.6853 -1.0703
  127DOPC   H8Y17497   4.031   6.259   3.074  0.2582 -0.3386 -1.3528
  127DOPC   C3917498   4.183   6.164   3.197 -0.0600  0.4005 -0.6658
  127DOPC   H9X17499   4.276   6.131   3.150 -0.8256 -0.0298 -1.9574
  127DOPC  C31017500   4.187   6.219   3.319 -0.0632 -0.3667  0.5161
  127DOPC  H10X17501   4.279   6.228   3.379  0.7567  1.2636 -0.9170
  127DOPC  C31117502   4.062   6.276   3.395  0.3947 -0.1558 -0.4175
  127DOPC  H11X17503   3.986   6.293   3.315 -0.5046 -2.0699 -0.0223
  127DOPC  H11Y17504   4.081   6.366   3.456 -1.4696  0.3257 -0.4969
  127DOPC  C31217505   4.011   6.167   3.495 -0.3677 -0.3696  0.7013
  127DOPC  H12X17506   3.974   6.075   3.446  3.4513 -2.4046  1.2964
  127DOPC  H12Y17507   3.923   6.219   3.538  0.0774  1.8894 -0.8978
  127DOPC  C31317508   4.110   6.132   3.611  1.1425 -0.1561 -0.8192
  127DOPC  H13X17509   4.190   6.070   3.565 -0.1580 -2.1951 -0.4768
  127DOPC  H13Y17510   4.158   6.228   3.640 -1.0361  0.8308 -0.2216
  127DOPC  C31417511   4.037   6.061   3.726 -0.3980 -0.5131  0.6878
  127DOPC  H14X17512   4.119   6.055   3.801 -0.4780  2.0006  1.0401
  127DOPC  H14Y17513   3.959   6.125   3.771 -0.7201  0.4445 -1.1126
  127DOPC  C31517514   3.987   5.917   3.689 -0.3799  0.0023  0.4973
  127DOPC  H15X17515   4.013   5.852   3.775  0.8176 -0.3853 -0.1228
  127DOPC  H15Y17516   4.033   5.892   3.591 -1.2075 -2.7835  0.7364
  127DOPC  C31617517   3.830   5.924   3.668  0.3368 -0.1099 -0.3703
  127DOPC  H16X17518   3.774   5.977   3.748 -2.1803 -1.5679 -1.0760
  127DOPC  H16Y17519   3.808   5.985   3.578 -0.1355 -0.9662 -0.8501
  127DOPC  C31717520   3.764   5.790   3.634 -0.1139  0.6643  0.2966
  127DOPC  H17X17521   3.658   5.810   3.607 -1.1301 -3.5252  0.4889
  127DOPC  H17Y17522   3.809   5.754   3.539  0.3846  2.6926 -0.2910
  127DOPC  C31817523   3.765   5.691   3.751 -0.5132 -0.8779  0.3427
  127DOPC  H18X17524   3.873   5.674   3.771  0.3665  2.7940 -0.5756
  127DOPC  H18Y17525   3.718   5.738   3.840  0.6204 -0.6944  0.8587
  127DOPC  H18Z17526   3.724   5.590   3.729  2.3349 -2.0085 -0.2214
  128DOPC     N17527   5.175   0.441   1.577  0.4046  0.2015  0.1170
  128DOPC   C1217528   5.146   0.583   1.618  0.8514 -0.4194  0.3019
  128DOPC  H12A17529   5.069   0.618   1.551  1.5457 -0.2631 -0.4251
  128DOPC  H12B17530   5.231   0.649   1.607  2.0388 -2.0115 -0.5471
  128DOPC   C1317531   5.170   0.417   1.431  0.5719 -0.1784 -0.4235
  128DOPC  H13A17532   5.068   0.428   1.397  0.7352  0.3863 -0.7346
  128DOPC  H13B17533   5.236   0.487   1.382  0.4810  0.8937  0.9066
  128DOPC  H13C17534   5.209   0.318   1.412  0.3317 -0.1692 -0.9806
  128DOPC   C1417535   5.076   0.355   1.637  0.6215  0.3651 -0.3990
  128DOPC  H14A17536   5.093   0.249   1.619  0.1618  0.5068 -1.8268
  128DOPC  H14B17537   5.072   0.368   1.744  1.3288  1.8823 -0.5327
  128DOPC  H14C17538   4.978   0.384   1.604  0.4774  0.2889 -0.0423
  128DOPC   C1517539   5.311   0.393   1.625 -0.2225 -0.5409 -0.0713
  128DOPC  H15A17540   5.321   0.422   1.729  1.6525 -0.5081 -0.2283
  128DOPC  H15B17541   5.393   0.434   1.567  1.2940 -2.1466  0.8145
  128DOPC  H15C17542   5.321   0.285   1.618 -0.7717 -0.6420  0.5607
  128DOPC   C1117543   5.109   0.607   1.777 -0.2167 -0.3861  0.9001
  128DOPC  H11A17544   5.104   0.715   1.801  0.1943 -0.6046  2.0135
  128DOPC  H11B17545   5.013   0.557   1.802  0.1548 -2.0993 -0.8604
  128DOPC     P17546   5.335   0.625   1.908  0.2318  0.7598 -0.2197
  128DOPC   O1317547   5.356   0.752   1.837  0.2604  0.4227  0.2860
  128DOPC   O1417548   5.440   0.522   1.902 -0.0784  0.5933  0.5456
  128DOPC   O1217549   5.206   0.550   1.859 -0.2239  0.1102  0.0846
  128DOPC   O1117550   5.301   0.658   2.052  0.0750  0.1889 -0.3838
  128DOPC    C117551   5.212   0.599   2.146  0.0235 -0.2356  0.5262
  128DOPC    HA17552   5.108   0.620   2.113  0.1141 -0.4640  0.0825
  128DOPC    HB17553   5.234   0.661   2.236  0.2846 -0.2632  0.4818
  128DOPC    C217554   5.223   0.452   2.196 -0.1182  0.0190 -0.9737
  128DOPC    HS17555   5.188   0.442   2.301  1.6739  0.1909 -0.3388
  128DOPC   O2117556   5.365   0.420   2.203 -0.1191  0.1732  0.0397
  128DOPC   C2117557   5.427   0.477   2.309 -0.5642 -0.0181  0.1906
  128DOPC   O2217558   5.371   0.527   2.402 -0.2337  0.7359 -0.5045
  128DOPC   C2217559   5.575   0.463   2.296  0.3890  0.0525 -0.4541
  128DOPC   H2R17560   5.629   0.546   2.347  2.4098 -0.6048 -1.4016
  128DOPC   H2S17561   5.598   0.462   2.187 -2.4839 -0.6603 -1.1276
  128DOPC    C317562   5.158   0.349   2.107 -0.2753  0.0567 -0.5650
  128DOPC    HX17563   5.186   0.357   2.000  0.5965  1.0932 -0.2707
  128DOPC    HY17564   5.048   0.365   2.110 -0.4056 -0.7058 -0.8659
  128DOPC   O3117565   5.197   0.212   2.146  0.0617 -0.3323  0.2644
  128DOPC   C3117566   5.115   0.155   2.239 -0.2983  1.0023 -0.1664
  128DOPC   O3217567   5.021   0.208   2.297 -0.4774 -0.2599 -0.1696
  128DOPC   C3217568   5.154   0.016   2.261  1.0483  0.1688 -1.2559
  128DOPC   H2X17569   5.121  -0.043   2.173  1.1120 -1.5475 -0.1792
  128DOPC   H2Y17570   5.262   0.005   2.242  0.9255 -0.6782 -1.4981
  128DOPC   C2317571   5.605   0.321   2.345  0.3062  0.3756 -0.1913
  128DOPC   H3R17572   5.711   0.298   2.318 -0.1474  1.0857 -2.8313
  128DOPC   H3S17573   5.534   0.247   2.304  1.3220 -1.5103  1.2593
  128DOPC   C2417574   5.601   0.311   2.497  0.3937  0.0209 -0.7477
  128DOPC   H4R17575   5.496   0.316   2.535  0.2803  1.5762 -1.1869
  128DOPC   H4S17576   5.647   0.397   2.551  1.7926 -1.1859  0.0757
  128DOPC   C2517577   5.661   0.182   2.547 -0.3451 -0.5117 -0.0199
  128DOPC   H5R17578   5.768   0.191   2.518 -0.7831 -1.5185 -2.1198
  128DOPC   H5S17579   5.628   0.100   2.480 -0.7266 -2.3165  2.2534
  128DOPC   C2617580   5.638   0.167   2.695  0.4286 -0.1362 -0.4827
  128DOPC   H6R17581   5.678   0.068   2.723  0.0461 -0.0018  0.6201
  128DOPC   H6S17582   5.528   0.162   2.713  0.7170 -1.2696  1.2260
  128DOPC   C2717583   5.690   0.278   2.777  0.1499 -0.1954 -0.3768
  128DOPC   H7R17584   5.629   0.371   2.772 -0.6739 -0.6322  1.0451
  128DOPC   H7S17585   5.793   0.308   2.747  0.2800  0.3143  0.5367
  128DOPC   C2817586   5.703   0.234   2.924 -0.1794 -0.4478  0.0823
  128DOPC   H8R17587   5.779   0.153   2.926 -0.2089 -0.4759  1.3567
  128DOPC   H8S17588   5.601   0.200   2.952 -0.2666  0.2819  0.7015
  128DOPC   C2917589   5.752   0.355   3.004 -0.1638 -0.2006  0.0564
  128DOPC   H9R17590   5.860   0.373   2.995 -0.2976 -0.0080 -1.5739
  128DOPC  C21017591   5.678   0.447   3.071 -0.6603 -0.3003 -0.5363
  128DOPC  H10R17592   5.732   0.530   3.118  0.6554 -0.6456 -1.3712
  128DOPC  C21117593   5.528   0.447   3.077  0.0037 -0.0656  0.1796
  128DOPC  H11R17594   5.485   0.408   2.983  1.2900  1.0383 -0.9049
  128DOPC  H11S17595   5.482   0.547   3.092  0.0340  0.0345 -0.3845
  128DOPC  C21217596   5.475   0.363   3.205  0.1876  1.0399  0.1669
  128DOPC  H12R17597   5.519   0.261   3.216 -1.7019  0.1681 -0.0822
  128DOPC  H12S17598   5.375   0.332   3.169  0.2932  1.1376 -0.2116
  128DOPC  C21317599   5.476   0.432   3.335 -0.1208  0.3919 -0.3520
  128DOPC  H13R17600   5.414   0.524   3.334  0.8187  1.0505 -2.1213
  128DOPC  H13S17601   5.583   0.459   3.350 -0.3130  1.3329 -0.6114
  128DOPC  C21417602   5.441   0.351   3.456  0.6562 -0.0159 -0.4227
  128DOPC  H14R17603   5.489   0.393   3.547 -0.5722 -0.0192  0.2462
  128DOPC  H14S17604   5.493   0.253   3.453  0.6746 -0.0294  0.1997
  128DOPC  C21517605   5.292   0.339   3.464 -0.4031  0.1733  0.2504
  128DOPC  H15R17606   5.243   0.289   3.377  1.2767 -0.5374 -0.3479
  128DOPC  H15S17607   5.248   0.440   3.474  2.0845  1.4457 -0.8370
  128DOPC  C21617608   5.256   0.262   3.587 -0.6237  0.4802  0.0001
  128DOPC  H16R17609   5.282   0.326   3.674  0.7959 -1.6492  1.2369
  128DOPC  H16S17610   5.318   0.170   3.590 -0.5924 -0.1136 -6.1682
  128DOPC  C21717611   5.112   0.218   3.598 -0.0598  0.4486  0.7875
  128DOPC  H17R17612   5.086   0.190   3.494  0.9551 -1.1594  0.9173
  128DOPC  H17S17613   5.062   0.316   3.612  0.1246  0.4603  1.4204
  128DOPC  C21817614   5.068   0.117   3.697  1.0178 -0.1644 -0.4757
  128DOPC  H18R17615   4.959   0.120   3.715  1.2355 -0.5225  1.1133
  128DOPC  H18S17616   5.113   0.142   3.796 -2.4534  0.8847  0.9852
  128DOPC  H18T17617   5.091   0.012   3.667 -0.7670 -0.3689 -1.2135
  128DOPC   C3317618   5.108  -0.036   2.402 -0.0327 -0.0098  0.5185
  128DOPC   H3X17619   5.127  -0.145   2.407  0.8014  0.1766  1.9323
  128DOPC   H3Y17620   5.002  -0.004   2.413 -0.4874 -0.4152 -2.0061
  128DOPC   C3417621   5.184   0.031   2.522  1.0039  0.2061  0.2424
  128DOPC   H4X17622   5.138   0.129   2.549 -0.6795 -0.8199  1.2172
  128DOPC   H4Y17623   5.291   0.041   2.495  1.0014 -0.9185 -0.2461
  128DOPC   C3517624   5.181  -0.062   2.644  0.0849  0.8236 -0.8100
  128DOPC   H5X17625   5.247  -0.145   2.610  2.1443  1.0347  2.2869
  128DOPC   H5Y17626   5.080  -0.109   2.653  0.1841  0.2421 -2.3713
  128DOPC   C3617627   5.232   0.011   2.773  0.3493  0.5763  0.0035
  128DOPC   H6X17628   5.312   0.084   2.747 -0.0566  1.4168  1.0225
  128DOPC   H6Y17629   5.137   0.066   2.790  0.7853  1.8808 -1.5064
  128DOPC   C3717630   5.267  -0.079   2.894 -0.3344  0.2717 -0.4955
  128DOPC   H7X17631   5.184  -0.152   2.909  1.1903 -1.3492  0.4358
  128DOPC   H7Y17632   5.359  -0.136   2.869  1.5586  1.8435  2.3191
  128DOPC   C3817633   5.287  -0.003   3.024  0.0350 -0.3082 -0.3017
  128DOPC   H8X17634   5.202   0.058   3.061  0.7010  0.1030  0.5827
  128DOPC   H8Y17635   5.372   0.067   3.008  0.2862 -0.3546  0.7454
  128DOPC   C3917636   5.323  -0.099   3.133 -0.5090 -0.0060  0.2924
  128DOPC   H9X17637   5.427  -0.113   3.163 -0.6242  0.4073  0.8836
  128DOPC  C31017638   5.237  -0.167   3.204 -0.1761 -0.2184  0.5230
  128DOPC  H10X17639   5.281  -0.234   3.279  0.0605 -1.8518 -1.0030
  128DOPC  C31117640   5.090  -0.177   3.177 -0.3836  0.8302  0.1336
  128DOPC  H11X17641   5.065  -0.285   3.176 -0.0603  0.7425  0.8603
  128DOPC  H11Y17642   5.055  -0.133   3.081  0.6908 -0.3725 -0.8492
  128DOPC  C31217643   5.010  -0.112   3.288 -0.4469  0.2377  0.2759
  128DOPC  H12X17644   4.902  -0.136   3.277 -0.5951  0.6527  0.8005
  128DOPC  H12Y17645   5.027  -0.002   3.282 -1.1795  0.4177  1.1983
  128DOPC  C31317646   5.044  -0.146   3.435 -0.0421  0.2179 -0.1009
  128DOPC  H13X17647   5.154  -0.147   3.456 -0.4691 -1.9677  2.6728
  128DOPC  H13Y17648   5.001  -0.063   3.495  2.4239  0.4515  1.4971
  128DOPC  C31417649   4.990  -0.279   3.488  0.0706 -0.0286 -0.3228
  128DOPC  H14X17650   4.879  -0.284   3.477  0.1138 -0.9781 -0.3642
  128DOPC  H14Y17651   5.041  -0.362   3.434  0.7360  0.6979 -0.8424
  128DOPC  C31517652   5.025  -0.301   3.640  0.2501 -0.3178 -0.4331
  128DOPC  H15X17653   4.974  -0.225   3.703  1.2034 -0.0732  0.0555
  128DOPC  H15Y17654   5.133  -0.281   3.653 -0.0320  1.2852 -0.4555
  128DOPC  C31617655   4.992  -0.444   3.682  0.1046  0.7910  0.0606
  128DOPC  H16X17656   4.883  -0.464   3.682 -0.2803  2.3111  3.0856
  128DOPC  H16Y17657   5.052  -0.512   3.618  0.1259  1.4190 -0.5943
  128DOPC  C31717658   5.040  -0.467   3.829 -1.1640  0.2645  0.0297
  128DOPC  H17X17659   5.148  -0.443   3.837 -0.9682 -0.2637 -0.8504
  128DOPC  H17Y17660   4.983  -0.395   3.891  0.2052  1.6613 -0.2596
  128DOPC  C31817661   5.008  -0.605   3.875 -0.3444  0.4028  0.0937
  128DOPC  H18X17662   4.931  -0.656   3.813 -0.3948 -0.8008  1.1104
  128DOPC  H18Y17663   5.101  -0.664   3.883 -0.0158  0.9242  0.1481
  128DOPC  H18Z17664   4.958  -0.601   3.974  1.1867  1.6272  0.8641
  129SOD    SOD17665   3.745   1.699   6.331 -0.1127  0.0480 -0.0142
  130SOD    SOD17666   5.629   1.425   7.249  0.4963  0.4315 -0.1682
  131SOD    SOD17667   3.853   0.573   0.348  0.1607  0.3410 -0.3256
  132SOD    SOD17668   1.458   4.193   1.855  0.3022 -0.4156  0.2236
  133SOD    SOD17669   0.813   3.396   7.738  0.3404  0.2534  0.0420
  134SOD    SOD17670   3.361   4.271   7.262  0.0844 -0.4768  0.4125
  135SOD    SOD17671   1.586   1.720   6.527  0.1124 -0.5087 -0.1321
  136SOD    SOD17672   6.599   0.484   0.492  0.2360  0.1661 -0.0477
  137SOD    SOD17673   1.141   5.367   6.241  0.4141  0.2628  0.1596
  138SOD    SOD17674   5.467   1.501   1.842 -0.0108 -0.0564  0.1972
  139SOD    SOD17675   2.581   2.526   6.020  0.3393  1.0067  0.0397
  140SOD    SOD17676   5.240   5.283   0.396  0.2589 -0.0279  0.3035
  141SOD    SOD17677   2.991   1.117   6.979  0.1919  0.0999  0.0805
  142SOD    SOD17678   0.849   5.017   7.628  0.2815  0.2578 -0.3084
  143CAL    CAL17679   4.538   5.654   1.838 -0.1612  0.3315  0.3857
  144CAL    CAL17680   5.357   2.975   6.426  0.0683 -0.0310  0.1157
  145MG      MG17681   4.042   3.778   1.261 -0.0098  0.0228  0.6378
  146MG      MG17682   6.622   6.571   1.468 -0.3336 -0.1772  0.0538
  147MG      MG17683   3.822   5.966   6.659 -0.2113  0.1130 -0.2329
  148MG      MG17684   3.128   2.504   0.166  0.0381  0.4966  0.4056
  149CLA    CLA17685   6.005   2.397   0.466 -0.0811  0.0183 -0.2256
  150CLA    CLA17686   0.250   2.550   0.522 -0.1250  0.4556  0.5011
  151CLA    CLA17687   1.304   0.517   6.397  0.3475  0.0015  0.2168
  152CLA    CLA17688   2.205   5.655   6.568  0.1437 -0.4930 -0.0329
  153CLA    CLA17689   3.281   5.654   6.702  0.1771 -0.5701 -0.4487
  154CLA    CLA17690   3.812   3.677   0.797  0.4922  0.1136  0.1869
  155CLA    CLA17691   3.552   0.739   6.990  0.2515  0.3386  0.1294
  156CLA    CLA17692   0.784   5.688   6.344  0.0563  0.0168 -0.2769
  157CLA    CLA17693   4.666   6.424   0.251 -0.2097  0.3198  0.4794
  158CLA    CLA17694   2.621   3.723   7.145 -0.3847 -0.2569 -0.1168
  159CLA    CLA17695   2.210   0.302   7.335 -0.3143  0.1578 -0.3807
  160CLA    CLA17696   5.592   3.537   7.079  0.2159  0.2266 -0.1641
  161CLA    CLA17697   4.470   0.856   0.101 -0.2823 -0.1077 -0.1634
  162CLA    CLA17698   5.531   3.779   7.567  0.0806  0.0635 -0.0277
  163CLA    CLA17699   5.276   4.809   7.283  0.1580  0.2268 -0.1737
  164CLA    CLA17700   6.004   3.115   6.703  0.1543 -0.3847  0.0721
  165CLA    CLA17701   3.612   2.217   1.546  0.0317  0.2509 -0.0525
  166CLA    CLA17702   3.241   6.620   6.622  0.1544 -0.2004  0.3114
  167CLA    CLA17703   6.353   5.754   7.525 -0.0219  0.0522  0.1100
  168CLA    CLA17704   2.720   2.028   6.025 -0.1676 -0.2295 -0.0281
  169CLA    CLA17705   4.333   0.021   0.900 -0.0762 -0.6406  0.0597
  170CLA    CLA17706   2.517   5.496   6.903 -0.4067  0.2017 -0.0692
  171CLA    CLA17707   1.105   1.691   0.219 -0.1091  0.2268  0.0391
  172CLA    CLA17708   3.996   1.186   1.357 -0.2475 -0.5399 -0.3485
  173CLA    CLA17709   0.608   0.319   1.617 -0.0736  0.1421 -0.2563
  174CLA    CLA17710   4.346   4.214   0.494  0.1307  0.0787 -0.3462
  175TIP3   OH217711   5.883   5.203   7.159  0.0080 -0.1439  0.1552
  175TIP3    H117712   5.800   5.155   7.165  0.6186 -1.5219 -1.4900
  175TIP3    H217713   5.861   5.292   7.185 -1.5169 -0.9495  1.8244
  176TIP3   OH217714   6.586   1.991   1.320 -0.0383 -0.3144 -0.3108
  176TIP3    H117715   6.508   1.984   1.375  0.6409 -0.2767  0.6759
  176TIP3    H217716   6.622   2.077   1.340  0.5272 -0.5287 -0.3927
  177TIP3   OH217717   0.648   6.117   6.548 -0.3549 -0.6356  0.0167
  177TIP3    H117718   0.638   6.059   6.473  0.5304 -0.0656 -0.5718
  177TIP3    H217719   0.621   6.203   6.515 -2.3123 -0.8122  1.0695
  178TIP3   OH217720   0.560   3.842   7.200  0.1978 -0.4818  0.8017
  178TIP3    H117721   0.474   3.851   7.240  0.1137  0.0779  0.5062
  178TIP3    H217722   0.545   3.787   7.123  0.1564 -0.6233  0.9114
  179TIP3   OH217723   1.741   0.755   1.721 -0.2745 -0.2692  0.0410
  179TIP3    H117724   1.680   0.822   1.752 -0.2279 -0.1895 -0.0354
  179TIP3    H217725   1.826   0.799   1.720  0.1339 -0.9294  1.9726
  180TIP3   OH217726   2.341   5.222   1.776  0.0819  0.2848 -0.1742
  180TIP3    H117727   2.321   5.129   1.786  0.2774  0.0394 -1.8309
  180TIP3    H217728   2.411   5.238   1.840 -0.6385 -0.4442  0.8364
  181TIP3   OH217729   4.769   3.941   0.172  0.7536  0.0264 -0.8311
  181TIP3    H117730   4.789   3.864   0.119 -0.2433  1.2836 -3.2253
  181TIP3    H217731   4.686   3.973   0.137 -0.8663  0.0814  2.6664
  182TIP3   OH217732   1.876   1.930   6.927 -0.4262  0.2284 -0.5808
  182TIP3    H117733   1.917   2.006   6.886 -0.1559 -0.1282 -0.9735
  182TIP3    H217734   1.946   1.890   6.979  0.2958 -1.4666 -2.7329
  183TIP3   OH217735   5.090   5.002   6.906 -0.6645  0.4011 -0.9061
  183TIP3    H117736   5.096   4.925   6.963  0.7930  1.0014 -0.1956
  183TIP3    H217737   5.110   4.968   6.819  1.1411  0.1260 -0.4339
  184TIP3   OH217738   5.561   2.296   5.898 -0.3530 -0.2773  0.2917
  184TIP3    H117739   5.620   2.239   5.850 -0.0861  0.0364  0.2467
  184TIP3    H217740   5.618   2.349   5.954 -0.5627  0.2876 -0.0252
  185TIP3   OH217741   1.356   2.215   0.774 -0.4050 -0.2902  0.1373
  185TIP3    H117742   1.402   2.254   0.700  0.7299 -0.9789  0.4578
  185TIP3    H217743   1.312   2.138   0.736 -0.4548 -0.2077  0.0276
  186TIP3   OH217744   4.945   0.834   7.473 -0.6685 -0.2135  0.4138
  186TIP3    H117745   4.929   0.740   7.478 -1.5679 -0.0864  0.0293
  186TIP3    H217746   4.915   0.859   7.385  0.4297  0.2788  0.1493
  187TIP3   OH217747   0.967   6.258   5.388 -0.3103 -0.0457 -0.5418
  187TIP3    H117748   0.907   6.314   5.436 -0.8941 -1.3584  0.3304
  187TIP3    H217749   0.968   6.293   5.299 -1.1754  0.9088 -0.1820
  188TIP3   OH217750   4.351   1.214   5.605  0.0501 -0.4841 -0.5045
  188TIP3    H117751   4.345   1.275   5.678  0.2266 -1.4895  0.3720
  188TIP3    H217752   4.399   1.261   5.537  2.9057 -0.6401  1.2466
  189TIP3   OH217753   2.309   2.465   0.120 -0.1046 -0.7256 -0.2318
  189TIP3    H117754   2.252   2.460   0.043 -2.1840  2.4111  0.9212
  189TIP3    H217755   2.274   2.399   0.180 -1.9618  0.3909  0.0085
  190TIP3   OH217756   1.654   0.387   1.894  0.4017 -0.0468  0.2998
  190TIP3    H117757   1.706   0.337   1.957  0.2931 -0.8206 -0.1991
  190TIP3    H217758   1.582   0.328   1.871  0.2772  0.3357 -0.3202
  191TIP3   OH217759   5.761   5.257   6.359 -0.1641  0.1625 -0.3881
  191TIP3    H117760   5.752   5.236   6.266  1.0667  2.2824 -1.0553
  191TIP3    H217761   5.856   5.267   6.372 -0.2969 -0.2838  1.1647
  192TIP3   OH217762   3.462   0.212   5.400  0.2279 -0.0676  0.6216
  192TIP3    H117763   3.473   0.226   5.494  2.0389 -0.3607  0.4810
  192TIP3    H217764   3.473   0.117   5.389 -0.7292 -0.1454  0.1792
  193TIP3   OH217765   4.749   2.545   7.526 -0.3513  0.4082 -0.3927
  193TIP3    H117766   4.810   2.521   7.597 -1.2771 -1.0902 -0.0638
  193TIP3    H217767   4.713   2.629   7.553 -1.4280 -0.5876  1.4680
  194TIP3   OH217768   2.154   2.504   6.967 -0.2773  0.2014 -0.4777
  194TIP3    H117769   2.155   2.599   6.977  0.1477  0.0467  1.2638
  194TIP3    H217770   2.169   2.471   7.055  2.8879 -1.4863 -1.5092
  195TIP3   OH217771   6.230   0.749   7.414 -0.5198  0.1755  0.4243
  195TIP3    H117772   6.139   0.772   7.431 -1.0186 -0.6339 -0.9570
  195TIP3    H217773   6.256   0.805   7.341  0.7878  1.8799  2.1013
  196TIP3   OH217774   3.619   2.548   6.873  0.4271  0.7271 -0.0276
  196TIP3    H117775   3.692   2.496   6.838 -1.2187 -1.4770 -0.3825
  196TIP3    H217776   3.651   2.580   6.957  1.4602 -1.1240  0.3340
  197TIP3   OH217777   1.075   4.247   6.188 -0.3655  0.3100  0.3409
  197TIP3    H117778   1.025   4.178   6.231 -0.9337  0.8138  0.5140
  197TIP3    H217779   1.015   4.281   6.121  1.0357 -1.5192 -2.0007
  198TIP3   OH217780   5.259   2.644   5.942 -0.1076  0.4015 -0.3951
  198TIP3    H117781   5.305   2.653   6.026  0.7894  3.1283 -1.0900
  198TIP3    H217782   5.272   2.552   5.917  1.3695  0.0516  1.4497
  199TIP3   OH217783   5.948   1.994   7.243 -0.1664  0.3638 -0.0362
  199TIP3    H117784   5.989   1.932   7.182 -0.0506 -0.0737  0.4801
  199TIP3    H217785   5.861   2.009   7.207 -1.1834 -2.1167  1.1818
  200TIP3   OH217786   2.260   5.634   6.274  0.3181  0.2016  0.6216
  200TIP3    H117787   2.255   5.541   6.253 -0.2529  0.6521 -1.4503
  200TIP3    H217788   2.247   5.638   6.369 -2.2250 -1.6616  0.4668
  201TIP3   OH217789   3.207   2.394   0.550  0.6955  0.0475 -0.0581
  201TIP3    H117790   3.283   2.447   0.573  1.4353 -0.9264 -0.1851
  201TIP3    H217791   3.153   2.391   0.630  0.8809  0.5852  0.0869
  202TIP3   OH217792   3.339   2.466   6.945 -0.5096  0.3952 -0.0491
  202TIP3    H117793   3.364   2.438   7.033 -1.6719  0.2428  0.2427
  202TIP3    H217794   3.422   2.488   6.903  0.2883 -1.7800  0.2915
  203TIP3   OH217795   4.659   5.438   1.422  0.7562 -0.2685 -0.1451
  203TIP3    H117796   4.612   5.487   1.354  0.1925 -1.5111 -0.6835
  203TIP3    H217797   4.749   5.436   1.391  0.7499  0.2529 -0.2132
  204TIP3   OH217798   2.387   0.384   7.111 -0.1425  0.3306 -0.2715
  204TIP3    H117799   2.444   0.450   7.151 -1.3645  1.6690 -0.6749
  204TIP3    H217800   2.328   0.358   7.181 -0.5353  0.6757 -0.4720
  205TIP3   OH217801   3.149   5.973   0.657 -0.0606  0.3744  0.2218
  205TIP3    H117802   3.061   6.009   0.656 -0.3480 -0.3256  0.0137
  205TIP3    H217803   3.193   6.016   0.730 -0.7051  0.4007  0.5898
  206TIP3   OH217804   1.412   3.707   1.952  0.0345  0.2127 -0.2803
  206TIP3    H117805   1.358   3.674   2.024 -1.1719  0.6025 -0.9625
  206TIP3    H217806   1.502   3.691   1.980 -0.4414 -1.6430  0.3467
  207TIP3   OH217807   2.557   1.661   5.169 -0.1199  0.1637  0.1125
  207TIP3    H117808   2.566   1.569   5.142 -1.0698 -0.7638  2.6209
  207TIP3    H217809   2.465   1.670   5.194  0.3326  1.2737  1.5526
  208TIP3   OH217810   1.292   1.066   1.362  0.5176 -0.4714  0.2924
  208TIP3    H117811   1.287   0.977   1.326  0.0395  0.3255 -1.7540
  208TIP3    H217812   1.206   1.080   1.402 -0.1645 -0.2587 -1.1707
  209TIP3   OH217813   6.187   6.363   5.869 -0.3840  0.4253 -0.4772
  209TIP3    H117814   6.115   6.404   5.822 -1.1533  0.2637  0.5395
  209TIP3    H217815   6.146   6.298   5.926  0.4747  0.9255  0.7600
  210TIP3   OH217816   2.583   0.801   6.403  0.0609  0.7524 -0.4538
  210TIP3    H117817   2.542   0.726   6.360  0.4489  0.4294 -0.2782
  210TIP3    H217818   2.528   0.876   6.380  0.4380  0.6463 -1.7702
  211TIP3   OH217819   3.564   3.736   1.269  0.5150  0.5132  0.4154
  211TIP3    H117820   3.606   3.651   1.284 -0.6587 -0.0613  0.5366
  211TIP3    H217821   3.589   3.789   1.345  1.2776  0.3025  0.3267
  212TIP3   OH217822   0.230   5.176   1.041  0.2256 -0.2476  0.0896
  212TIP3    H117823   0.242   5.126   1.121  0.3591 -1.0590 -0.4284
  212TIP3    H217824   0.144   5.217   1.051 -0.5285 -1.7340 -0.0857
  213TIP3   OH217825   2.980   5.771   6.737  0.1694 -0.2565 -0.5374
  213TIP3    H117826   3.074   5.753   6.739 -0.1544 -2.2330  1.7691
  213TIP3    H217827   2.940   5.685   6.721 -1.2644 -0.1510  1.8979
  214TIP3   OH217828   3.390   5.660   1.108  0.4315 -0.0399 -0.4184
  214TIP3    H117829   3.368   5.572   1.077  0.5737 -0.1726 -0.1452
  214TIP3    H217830   3.463   5.647   1.169 -0.8509  0.0208  1.2203
  215TIP3   OH217831   2.079   4.074   1.206 -0.4760 -0.0252  0.1147
  215TIP3    H117832   2.076   4.094   1.113 -2.2881  0.2100  0.1865
  215TIP3    H217833   2.050   3.983   1.212 -0.0660 -0.1373  0.4290
  216TIP3   OH217834   5.047   0.798   6.983 -0.6468 -0.2431 -0.8736
  216TIP3    H117835   5.081   0.855   7.052 -1.5821 -1.9322  1.0989
  216TIP3    H217836   5.118   0.793   6.919  0.2469  1.4220 -0.0929
  217TIP3   OH217837   5.455   3.436   0.202 -0.1260 -0.2176  0.1229
  217TIP3    H117838   5.370   3.476   0.188  0.2086  0.0346 -1.3043
  217TIP3    H217839   5.462   3.369   0.134  0.1991 -1.2921  1.1751
  218TIP3   OH217840   4.730   1.412   6.868  0.3367 -0.8745  0.0930
  218TIP3    H117841   4.768   1.347   6.810 -0.7151  1.5810 -3.7210
  218TIP3    H217842   4.635   1.402   6.858  0.1285  1.4364 -1.0962
  219TIP3   OH217843   6.352   2.235   6.820  0.0762  0.0598 -0.6071
  219TIP3    H117844   6.306   2.315   6.797  0.7926  0.5405 -0.4235
  219TIP3    H217845   6.430   2.236   6.764  1.3512  0.7610  1.0870
  220TIP3   OH217846   4.960   4.337   6.805 -0.3590 -0.3442 -0.2288
  220TIP3    H117847   5.020   4.407   6.782 -1.3945  0.0545 -1.8683
  220TIP3    H217848   5.010   4.281   6.864  1.5646  0.0641 -1.3971
  221TIP3   OH217849   4.104   2.413   6.256  0.4751  0.3361 -0.2308
  221TIP3    H117850   4.129   2.419   6.348  0.3731 -0.7658 -0.1229
  221TIP3    H217851   4.186   2.422   6.208  0.8576 -1.2475  0.0549
  222TIP3   OH217852   2.571   6.349   0.108 -0.6810  0.0863 -0.0289
  222TIP3    H117853   2.520   6.335   0.028 -0.7345 -0.9485  0.1792
  222TIP3    H217854   2.588   6.261   0.142  1.0989  0.4036  0.0090
  223TIP3   OH217855   2.621   4.591   0.827 -0.0283  0.1646  0.2887
  223TIP3    H117856   2.714   4.593   0.853  0.6530 -1.8538 -1.7098
  223TIP3    H217857   2.592   4.682   0.837  1.5339  0.4823  2.9798
  224TIP3   OH217858   5.634   3.298   6.202  0.5251 -0.8198 -0.1334
  224TIP3    H117859   5.642   3.352   6.281 -0.8850 -0.7137 -0.0331
  224TIP3    H217860   5.636   3.361   6.130 -1.9638 -0.4690  0.0194
  225TIP3   OH217861   1.396   4.795   5.795  0.2634 -0.4020 -0.5538
  225TIP3    H117862   1.488   4.797   5.766  0.3551 -0.3173 -0.2635
  225TIP3    H217863   1.367   4.706   5.778  0.4693 -0.4917 -0.4387
  226TIP3   OH217864   0.140   4.114   5.787 -0.3069  0.1036 -0.2080
  226TIP3    H117865   0.169   4.185   5.844 -0.4663 -1.0520  1.3648
  226TIP3    H217866   0.182   4.132   5.703  1.3678  0.8903  0.7568
  227TIP3   OH217867   2.517   3.311   7.736  0.2294 -0.0150  0.0075
  227TIP3    H117868   2.519   3.299   7.831  1.4138 -0.0784 -0.0201
  227TIP3    H217869   2.510   3.406   7.725 -0.3959 -0.0385  0.1515
  228TIP3   OH217870   1.846   4.063   1.751 -0.1340  0.5650 -0.1331
  228TIP3    H117871   1.899   3.986   1.729  1.2535  1.4365  0.0260
  228TIP3    H217872   1.786   4.073   1.677  0.6746  0.1846 -0.8599
  229TIP3   OH217873   4.415   2.003   0.128 -0.2755  0.7338 -0.0179
  229TIP3    H117874   4.461   1.983   0.047  0.7973  0.0882  0.7234
  229TIP3    H217875   4.417   2.099   0.134 -0.3179  0.7826 -0.7079
  230TIP3   OH217876   4.997   0.106   6.240  0.2116  0.0671  1.0997
  230TIP3    H117877   5.077   0.158   6.244 -0.3130  0.8415  1.7620
  230TIP3    H217878   4.938   0.156   6.184  0.1418 -0.4506  0.6943
  231TIP3   OH217879   0.380   2.344   6.879  0.4975  0.0725 -0.3347
  231TIP3    H117880   0.461   2.328   6.927  0.6070  0.4437 -0.3925
  231TIP3    H217881   0.337   2.416   6.927  0.4453  0.2167 -0.5933
  232TIP3   OH217882   4.218   3.784   0.563  0.4783  0.6723  0.5100
  232TIP3    H117883   4.291   3.844   0.546  0.8986  0.2681  0.8363
  232TIP3    H217884   4.260   3.707   0.602 -0.2462  0.8730  1.7234
  233TIP3   OH217885   2.329   4.436   1.764 -0.1974 -0.0605 -0.2206
  233TIP3    H117886   2.305   4.361   1.819  0.0839  0.4029  0.5403
  233TIP3    H217887   2.320   4.512   1.821  1.9940  0.2589 -0.2174
  234TIP3   OH217888   4.717   6.414   1.031  0.1027 -0.5973 -0.2627
  234TIP3    H117889   4.645   6.410   0.969 -0.4824  0.5967  0.3144
  234TIP3    H217890   4.691   6.354   1.102 -0.6006  0.2532  0.2129
  235TIP3   OH217891   5.523   5.155   7.617  0.2057 -0.3590  0.0027
  235TIP3    H117892   5.577   5.077   7.604 -0.9826 -1.3634  0.8308
  235TIP3    H217893   5.466   5.157   7.539 -0.6646 -1.1097  0.5961
  236TIP3   OH217894   1.315   4.542   5.711 -0.2323 -0.3097  0.1281
  236TIP3    H117895   1.273   4.535   5.625 -1.9068  1.2416  0.7433
  236TIP3    H217896   1.409   4.540   5.693 -0.5486 -0.2306 -1.7094
  237TIP3   OH217897   0.658   5.159   7.712 -0.5076 -0.5178  0.2239
  237TIP3    H117898   0.719   5.163   7.786  0.2051 -0.5477 -0.3468
  237TIP3    H217899   0.575   5.131   7.750 -0.1871 -0.3933  1.0324
  238TIP3   OH217900   0.169   3.862   7.175 -0.2489  0.3730 -0.1299
  238TIP3    H117901   0.240   3.897   7.122 -0.7918  1.3298 -0.2357
  238TIP3    H217902   0.210   3.843   7.259  0.4805 -0.5850 -0.6714
  239TIP3   OH217903   4.690   4.103   7.220  0.3491  0.3651 -0.0725
  239TIP3    H117904   4.752   4.060   7.279  1.1400  0.3769 -0.8743
  239TIP3    H217905   4.710   4.067   7.134  1.3107  2.5617 -0.8441
  240TIP3   OH217906   2.733   4.955   1.681 -0.5607 -0.3512 -0.4850
  240TIP3    H117907   2.732   5.037   1.730 -2.3973  0.4678 -1.7914
  240TIP3    H217908   2.707   4.889   1.746 -1.4394  0.4770  0.0494
  241TIP3   OH217909   5.072   4.612   7.580 -0.2935 -0.3492  0.2415
  241TIP3    H117910   5.020   4.633   7.502 -1.1690  0.2455  0.9624
  241TIP3    H217911   5.018   4.642   7.653 -0.4896 -2.8771  1.2369
  242TIP3   OH217912   1.933   0.217   1.187 -0.5721 -0.0823  0.3607
  242TIP3    H117913   1.842   0.221   1.157  0.0920 -0.2187 -1.8313
  242TIP3    H217914   1.946   0.124   1.209 -0.6168 -0.3356 -0.6053
  243TIP3   OH217915   5.392   2.259   0.687  0.4060 -0.1204 -0.4922
  243TIP3    H117916   5.447   2.292   0.758 -0.5353  0.5075 -0.0385
  243TIP3    H217917   5.377   2.167   0.708  0.8998 -0.1812 -0.3858
  244TIP3   OH217918   0.396   3.112   6.842  0.2546 -0.0791 -0.5123
  244TIP3    H117919   0.346   3.037   6.809 -0.5284  0.2015  0.0048
  244TIP3    H217920   0.390   3.103   6.937 -0.0676  0.7853 -0.4497
  245TIP3   OH217921   1.362   2.391   5.864 -0.2738 -0.3103 -0.1924
  245TIP3    H117922   1.272   2.413   5.840 -0.3050  1.3528  1.2388
  245TIP3    H217923   1.416   2.435   5.799 -0.4269  1.9245  1.1072
  246TIP3   OH217924   3.097   1.296   7.099  0.9522  0.3637 -0.2771
  246TIP3    H117925   3.057   1.377   7.130 -0.1780 -1.0710  2.3661
  246TIP3    H217926   3.160   1.272   7.167 -0.2940 -2.0346  0.1492
  247TIP3   OH217927   5.017   0.714   0.205  0.2579 -0.7148 -0.1757
  247TIP3    H117928   5.083   0.685   0.268 -0.0622  0.0741  0.5351
  247TIP3    H217929   5.068   0.744   0.130  0.7348  0.1564  0.4783
  248TIP3   OH217930   5.970   2.786   0.079  0.4403 -0.7231  0.2743
  248TIP3    H117931   6.040   2.724   0.098  1.1126 -0.2432 -0.5606
  248TIP3    H217932   5.930   2.752  -0.002  0.6732 -0.1913 -0.0675
  249TIP3   OH217933   1.081   3.361   0.923  0.0552 -0.2710  0.4681
  249TIP3    H117934   1.009   3.424   0.919 -0.5211 -0.9871 -1.5388
  249TIP3    H217935   1.040   3.278   0.948  0.6287 -0.1493  1.9270
  250TIP3   OH217936   5.397   1.617   0.549  1.1854  0.0927 -0.2002
  250TIP3    H117937   5.453   1.597   0.623  1.5687  0.5390 -0.3606
  250TIP3    H217938   5.453   1.604   0.472  1.4386  1.6336 -0.3183
  251TIP3   OH217939   1.649   3.800   1.638  0.0349  0.1792 -0.4259
  251TIP3    H117940   1.664   3.841   1.552  0.5391 -0.4255 -0.6364
  251TIP3    H217941   1.598   3.722   1.618  1.8239 -1.0338 -0.4289
  252TIP3   OH217942   0.052   6.304   0.436 -0.3970  0.4940  0.1975
  252TIP3    H117943   0.042   6.359   0.358 -1.1407 -0.3607 -0.3398
  252TIP3    H217944  -0.034   6.262   0.446 -0.2863  0.5246  1.4340
  253TIP3   OH217945   6.331   1.068   6.602 -0.4513 -0.0820  0.3958
  253TIP3    H117946   6.394   0.996   6.605  0.6570  0.8014 -0.6511
  253TIP3    H217947   6.384   1.147   6.611 -1.4774  0.6719  0.0482
  254TIP3   OH217948   5.178   5.409   7.504  0.0537 -0.6783 -0.6035
  254TIP3    H117949   5.135   5.420   7.419  1.8502  1.3917 -1.3436
  254TIP3    H217950   5.266   5.444   7.491  0.4074 -0.3416  2.1104
  255TIP3   OH217951   1.776   4.481   2.041  0.0250 -0.1701  0.3572
  255TIP3    H117952   1.712   4.486   1.970  0.6109 -1.5953 -0.3102
  255TIP3    H217953   1.853   4.526   2.007 -0.8972  2.5337  1.5733
  256TIP3   OH217954   4.882   3.790   6.823  0.3378 -0.1249  0.2482
  256TIP3    H117955   4.957   3.754   6.870  0.2894 -0.0800  0.3586
  256TIP3    H217956   4.825   3.715   6.806  0.3530 -0.1400  0.2648
  257TIP3   OH217957   1.852   1.486   2.055  0.2747 -0.0121  0.2127
  257TIP3    H117958   1.805   1.447   2.129 -1.1354  0.9750 -0.1246
  257TIP3    H217959   1.785   1.531   2.005  1.8271  3.7206  1.1029
  258TIP3   OH217960   5.203   4.398   7.203  0.3764 -0.1911  0.6472
  258TIP3    H117961   5.238   4.468   7.257  2.0516  0.0087 -0.6059
  258TIP3    H217962   5.265   4.326   7.213 -0.2000 -0.7466  0.3075
  259TIP3   OH217963   1.701   2.212   7.538  0.2149 -0.7730  0.2967
  259TIP3    H117964   1.759   2.237   7.610 -1.5009  0.8049  1.1897
  259TIP3    H217965   1.617   2.195   7.579 -0.6321 -0.5037 -1.2525
  260TIP3   OH217966   3.458   5.315   6.443  0.3882 -0.2146  0.3328
  260TIP3    H117967   3.437   5.263   6.521  2.3600 -0.4903  0.7472
  260TIP3    H217968   3.511   5.388   6.476  0.9887 -0.1573 -0.6905
  261TIP3   OH217969   4.594   4.726   2.051  0.3863 -0.5882  0.3522
  261TIP3    H117970   4.654   4.742   1.978 -0.1799  1.6932  0.3069
  261TIP3    H217971   4.511   4.703   2.010 -0.0636  1.1729  0.2062
  262TIP3   OH217972   1.197   5.231   7.216  0.1842 -0.2978 -0.4277
  262TIP3    H117973   1.145   5.294   7.165  1.5866  1.4160  0.1503
  262TIP3    H217974   1.254   5.189   7.151  1.9294  1.8438 -0.4278
  263TIP3   OH217975   3.673   0.025   7.027  0.3754  0.1921  0.3773
  263TIP3    H117976   3.579   0.012   7.033  0.5499 -0.5176  2.2233
  263TIP3    H217977   3.707  -0.055   6.987  0.2516  0.2999  0.0487
  264TIP3   OH217978   3.192   3.752   0.807 -0.2617  0.2518 -0.3307
  264TIP3    H117979   3.172   3.820   0.742 -1.4606  1.4978  1.2562
  264TIP3    H217980   3.113   3.698   0.809  0.5615 -1.0262 -1.3460
  265TIP3   OH217981   4.406   2.130   6.599  0.0626 -0.3959 -0.3074
  265TIP3    H117982   4.437   2.217   6.573 -0.3288  0.5232  2.0348
  265TIP3    H217983   4.311   2.136   6.595  0.0198 -0.5129  0.4036
  266TIP3   OH217984   2.477   6.226   6.630 -0.5834  1.1395  0.6442
  266TIP3    H117985   2.487   6.256   6.720  3.5352 -0.9280  1.1276
  266TIP3    H217986   2.538   6.280   6.579  0.6738 -0.6691  0.0849
  267TIP3   OH217987   4.395   0.529   6.195 -0.4579  0.4199 -0.2446
  267TIP3    H117988   4.347   0.565   6.120 -3.4551 -1.6772  0.4480
  267TIP3    H217989   4.418   0.440   6.167  1.0216  0.5930  0.3343
  268TIP3   OH217990   6.110   1.238   0.588  0.2570  0.4739  0.3506
  268TIP3    H117991   6.135   1.146   0.596  0.1116  0.5406  1.7010
  268TIP3    H217992   6.033   1.248   0.645  1.0095  1.6968  1.1996
  269TIP3   OH217993   0.781   4.401   0.306  0.5956 -0.3593 -0.2011
  269TIP3    H117994   0.737   4.360   0.380  1.9118  0.7417  1.2498
  269TIP3    H217995   0.779   4.335   0.237  1.0673 -2.1991  1.4597
  270TIP3   OH217996   2.109   3.492   2.506 -0.0212  0.3791 -0.6205
  270TIP3    H117997   2.065   3.577   2.503 -1.0886 -0.1643 -0.8607
  270TIP3    H217998   2.075   3.445   2.430  1.5705  0.2045 -1.2670
  271TIP3   OH217999   6.438   2.360   0.005  0.5008 -0.2427  0.0701
  271TIP3    H118000   6.366   2.366   0.068  1.6039  1.1077  1.2900
  271TIP3    H218001   6.504   2.307   0.050  1.0531  0.2131 -0.1891
  272TIP3   OH218002   3.426   5.924   7.469 -0.1134  0.1093 -0.5030
  272TIP3    H118003   3.354   5.890   7.521  0.5792 -1.7224 -0.6504
  272TIP3    H218004   3.448   6.008   7.509 -1.1126 -0.1711  0.6814
  273TIP3   OH218005   5.504   0.416   0.184 -0.6196  0.4972 -0.4472
  273TIP3    H118006   5.445   0.407   0.259  1.8571  1.4460  1.7539
  273TIP3    H218007   5.520   0.510   0.177  1.3068  0.2026 -0.3835
  274TIP3   OH218008   6.557   5.941   7.662  0.6150  0.5089 -0.1424
  274TIP3    H118009   6.505   5.884   7.606  0.1378  1.2631 -0.4759
  274TIP3    H218010   6.648   5.916   7.644  0.5229  1.2843 -1.8738
  275TIP3   OH218011   3.524   4.671   1.043 -0.1073 -0.2043 -0.1322
  275TIP3    H118012   3.537   4.754   0.997  0.3047  0.3667  0.9762
  275TIP3    H218013   3.588   4.612   1.004  0.6914  0.4588  0.1432
  276TIP3   OH218014   2.457   6.501   0.325  1.0323  0.3705 -0.0096
  276TIP3    H118015   2.461   6.432   0.257  1.3681 -0.8234  1.1802
  276TIP3    H218016   2.543   6.543   0.321  0.8559  0.6783 -0.6918
  277TIP3   OH218017   1.336   6.196   0.674  0.0650 -0.3268  0.0431
  277TIP3    H118018   1.419   6.148   0.665  0.5514  0.5824 -0.4320
  277TIP3    H218019   1.362   6.288   0.680 -0.9851  0.3690 -3.5009
  278TIP3   OH218020   1.326   3.421   1.429 -0.0356 -0.1276 -0.3042
  278TIP3    H118021   1.342   3.334   1.392 -1.2968 -0.1280 -0.9061
  278TIP3    H218022   1.258   3.406   1.495 -0.0740  0.3592 -0.2318
  279TIP3   OH218023   2.989   0.452   6.996  0.3680 -0.4172  0.0790
  279TIP3    H118024   3.017   0.367   7.030 -1.9309 -1.0996  0.4081
  279TIP3    H218025   2.904   0.435   6.955  0.1663  1.6001 -0.4375
  280TIP3   OH218026   4.124   6.278   6.960 -0.0398 -0.3372 -0.8323
  280TIP3    H118027   4.047   6.228   6.988  1.0083 -0.2900  2.5763
  280TIP3    H218028   4.107   6.367   6.993  0.6799  0.1422 -1.7165
  281TIP3   OH218029   0.333   0.582   6.064 -0.2164 -0.1882  0.2337
  281TIP3    H118030   0.314   0.508   6.007  1.6351 -1.1370  0.7557
  281TIP3    H218031   0.397   0.634   6.015 -1.9444  1.4344 -0.3760
  282TIP3   OH218032   2.384   1.934   2.114 -0.0737 -0.0211  0.4634
  282TIP3    H118033   2.457   1.881   2.144 -1.5237 -1.5012  1.5968
  282TIP3    H218034   2.328   1.943   2.191 -0.5302  2.0736 -0.0596
  283TIP3   OH218035   0.798   2.233   7.649  0.1067 -0.2226 -0.3576
  283TIP3    H118036   0.894   2.237   7.648  0.1044  1.0204  0.9194
  283TIP3    H218037   0.776   2.202   7.736 -0.6609  0.1517 -0.4063
  284TIP3   OH218038   5.401   2.660   1.409 -0.0849 -0.1319  0.1246
  284TIP3    H118039   5.318   2.638   1.452 -1.1632  0.0704 -1.7387
  284TIP3    H218040   5.468   2.645   1.477 -1.6235 -0.2835  1.6855
  285TIP3   OH218041   5.437   2.356   0.349 -0.2582 -0.1850 -0.1026
  285TIP3    H118042   5.391   2.406   0.417  0.9777  1.3316 -0.3154
  285TIP3    H218043   5.495   2.297   0.397  0.5876  0.8581  0.2030
  286TIP3   OH218044   1.480   1.700   2.649 -0.3021 -0.3135  0.1910
  286TIP3    H118045   1.450   1.609   2.640  0.7836 -0.8460  1.5232
  286TIP3    H218046   1.561   1.693   2.700 -0.7838  1.5117  1.2771
  287TIP3   OH218047   0.431   0.914   6.655 -0.5907  0.4541 -0.1260
  287TIP3    H118048   0.504   0.908   6.593  0.6373 -0.0270  1.2998
  287TIP3    H218049   0.358   0.870   6.610  0.2567  0.0867 -1.2051
  288TIP3   OH218050   0.440   6.272   6.227 -0.1376  0.2769  0.7860
  288TIP3    H118051   0.472   6.360   6.249  0.2936  0.1366  0.7248
  288TIP3    H218052   0.390   6.245   6.304  0.9352 -0.0041  1.3885
  289TIP3   OH218053   2.128   2.739   1.848 -0.2015 -0.3816 -0.4977
  289TIP3    H118054   2.158   2.753   1.937 -1.2028  1.1919 -0.3678
  289TIP3    H218055   2.144   2.646   1.831 -3.2795 -1.6735  2.6050
  290TIP3   OH218056   0.814   1.716   0.085 -0.2984  0.8031  0.4061
  290TIP3    H118057   0.764   1.643   0.122  1.0095 -0.9704 -1.1295
  290TIP3    H218058   0.902   1.703   0.120  0.6198 -0.0815 -2.0434
  291TIP3   OH218059   3.744   5.368   0.004  0.0213 -0.5530 -0.4335
  291TIP3    H118060   3.807   5.348  -0.065  0.8659 -0.8160  0.3926
  291TIP3    H218061   3.797   5.401   0.077 -0.8755 -0.0129 -0.0076
  292TIP3   OH218062   0.315   0.555   7.710  0.7197 -0.0687  0.3381
  292TIP3    H118063   0.391   0.587   7.661  0.7561 -0.2762  0.2585
  292TIP3    H218064   0.310   0.462   7.688  0.3437 -0.0211  0.2138
  293TIP3   OH218065   1.072   4.293   0.586  0.1107  0.2906 -0.0082
  293TIP3    H118066   1.029   4.359   0.641 -0.4424 -0.1497  0.0897
  293TIP3    H218067   1.125   4.344   0.525 -1.5900  0.9055 -1.0339
  294TIP3   OH218068   2.350   0.196   0.452  0.2698 -0.3640 -0.2012
  294TIP3    H118069   2.415   0.199   0.382 -1.2536  1.1761 -1.6649
  294TIP3    H218070   2.377   0.263   0.514  2.3855 -2.6485  1.5228
  295TIP3   OH218071   4.603   6.176   7.447  0.0755  0.5376  0.0149
  295TIP3    H118072   4.657   6.105   7.412 -1.3999  0.1852 -1.6975
  295TIP3    H218073   4.624   6.178   7.540  2.0528 -0.4284 -0.3543
  296TIP3   OH218074   1.346   3.679   7.249 -0.2621  0.1274  0.3505
  296TIP3    H118075   1.266   3.688   7.196 -1.1581 -2.0611  1.2278
  296TIP3    H218076   1.402   3.750   7.218 -1.4329  0.0388 -2.2869
  297TIP3   OH218077   1.954   1.819   0.904  0.1367  0.0697 -0.0989
  297TIP3    H118078   1.991   1.749   0.851 -0.0275 -0.3373  0.3198
  297TIP3    H218079   1.895   1.775   0.965 -0.2132  0.6027 -0.0405
  298TIP3   OH218080   5.329   5.098   0.321 -0.7908 -0.0843 -0.4179
  298TIP3    H118081   5.349   5.071   0.231 -0.0575 -2.7103  0.4472
  298TIP3    H218082   5.306   5.017   0.366  2.3618  0.4911  2.6623
  299TIP3   OH218083   1.311   6.527   5.176 -0.4067  0.6654 -0.1149
  299TIP3    H118084   1.364   6.592   5.221  0.0427  3.0812 -3.7386
  299TIP3    H218085   1.374   6.460   5.149 -0.6577 -0.7292  2.4118
  300TIP3   OH218086   0.361   1.421   1.652  0.0096  0.0712 -0.4032
  300TIP3    H118087   0.321   1.470   1.724 -0.1855 -0.1409 -0.3656
  300TIP3    H218088   0.386   1.337   1.690  0.6832  0.2793 -0.3796
  301TIP3   OH218089   5.152   6.576   1.464  0.5438 -0.6657  0.0555
  301TIP3    H118090   5.119   6.607   1.380  4.0373  1.3857 -0.7581
  301TIP3    H218091   5.152   6.481   1.456 -1.4023 -0.6030 -1.2944
  302TIP3   OH218092   2.476   2.460   0.833  0.4849 -0.3568 -0.8332
  302TIP3    H118093   2.564   2.482   0.802  0.8962 -0.8588 -0.0514
  302TIP3    H218094   2.444   2.542   0.872  0.9827 -0.4199 -0.2750
  303TIP3   OH218095   2.870   3.869   0.346 -0.7622 -0.0189 -0.0195
  303TIP3    H118096   2.954   3.913   0.337  1.4090 -3.9024 -0.8242
  303TIP3    H218097   2.880   3.814   0.424 -1.7166 -2.0724 -1.2729
  304TIP3   OH218098   2.737   5.288   1.306 -0.0976  0.1434 -0.1184
  304TIP3    H118099   2.694   5.345   1.242  0.4863 -1.2049 -1.8042
  304TIP3    H218100   2.809   5.248   1.257 -0.7545 -2.3721  0.8191
  305TIP3   OH218101   1.448   2.012   0.146  0.2395 -0.1268 -0.0289
  305TIP3    H118102   1.432   2.058   0.064 -0.2734 -1.7704 -0.9100
  305TIP3    H218103   1.436   1.919   0.124 -2.1307 -0.5162  2.3917
  306TIP3   OH218104   5.973   2.158   1.010 -0.0722 -0.4381 -0.0454
  306TIP3    H118105   5.962   2.207   0.929 -0.3913 -1.1545 -0.4337
  306TIP3    H218106   5.917   2.081   1.001 -0.3626 -0.3683  0.9826
  307TIP3   OH218107   6.324   5.296   2.033 -1.0486  0.5868 -0.5499
  307TIP3    H118108   6.358   5.211   2.060 -0.0630  0.8074 -1.0545
  307TIP3    H218109   6.229   5.285   2.032 -1.0091 -0.0222  0.9709
  308TIP3   OH218110   2.366   1.193   1.499 -0.1958 -0.0871  0.2539
  308TIP3    H118111   2.405   1.193   1.412 -0.0005 -1.1121  0.3370
  308TIP3    H218112   2.320   1.277   1.504  0.4280  0.3142 -0.5418
  309TIP3   OH218113   5.198   3.699   7.426 -0.3558 -0.2442  0.3004
  309TIP3    H118114   5.229   3.630   7.368 -2.1533  0.4420 -1.5942
  309TIP3    H218115   5.277   3.742   7.457  0.7042 -1.7585 -0.1921
  310TIP3   OH218116   1.509   0.948   0.016 -0.8170  0.4911 -0.3470
  310TIP3    H118117   1.497   0.987   0.103  1.9451 -0.6276  0.6409
  310TIP3    H218118   1.582   0.997  -0.022 -1.7721  0.7358 -1.9295
  311TIP3   OH218119   5.502   5.349   0.037  0.0239 -0.1386  0.3832
  311TIP3    H118120   5.520   5.282  -0.029  2.6304 -1.8308  2.5550
  311TIP3    H218121   5.584   5.398   0.044 -0.4795  0.5648  1.7059
  312TIP3   OH218122   0.560   0.357   1.002 -0.1628 -0.4285  0.1397
  312TIP3    H118123   0.525   0.388   1.086  1.0289  1.2505  0.0728
  312TIP3    H218124   0.525   0.418   0.937  1.0011 -0.1031 -0.2107
  313TIP3   OH218125   6.560   3.045   6.810  0.4960  0.1035  0.2574
  313TIP3    H118126   6.584   3.137   6.815  0.1321  0.3021 -1.2464
  313TIP3    H218127   6.469   3.042   6.839  1.1387 -0.1424  2.4651
  314TIP3   OH218128   0.449   1.875   6.843  0.5418  0.0497 -0.3618
  314TIP3    H118129   0.498   1.835   6.915 -0.7547 -0.0372  0.5110
  314TIP3    H218130   0.401   1.947   6.885 -2.7974 -1.9581 -0.3693
  315TIP3   OH218131   0.071   3.687   6.148  0.6226  0.0202 -0.8100
  315TIP3    H118132   0.018   3.709   6.071 -1.5599 -0.5025  0.4413
  315TIP3    H218133   0.042   3.599   6.173  2.2054 -0.3341 -0.1250
  316TIP3   OH218134   3.332   1.806   6.254 -0.7106  0.5819 -0.1586
  316TIP3    H118135   3.249   1.759   6.257 -1.1829  1.4544  0.8913
  316TIP3    H218136   3.308   1.899   6.254  0.2592  0.8651  1.0050
  317TIP3   OH218137   2.546   3.206   1.536  0.1524  0.0579 -0.1101
  317TIP3    H118138   2.526   3.153   1.459 -0.7305  0.4435 -0.1568
  317TIP3    H218139   2.467   3.202   1.589 -0.3987  2.3176 -0.6899
  318TIP3   OH218140   0.152   1.656   0.391  0.1374  0.4887  0.2964
  318TIP3    H118141   0.151   1.585   0.456  1.2110  0.9603  0.8417
  318TIP3    H218142   0.146   1.736   0.443 -0.2110  0.8395 -0.2712
  319TIP3   OH218143   2.702   5.336   0.883  0.0989  0.5855 -0.1357
  319TIP3    H118144   2.708   5.399   0.812  0.7860 -0.2028 -0.7999
  319TIP3    H218145   2.699   5.389   0.963  2.5233  1.4752 -0.5508
  320TIP3   OH218146   5.100   6.325   1.343  0.5113 -0.5797  0.0612
  320TIP3    H118147   5.007   6.329   1.317  0.7883 -0.1815 -0.9054
  320TIP3    H218148   5.148   6.321   1.260  1.3899 -0.1958  0.5412
  321TIP3   OH218149   2.875   5.008   0.661 -0.1254 -0.3475 -0.3199
  321TIP3    H118150   2.801   5.058   0.695 -0.3988  0.7093 -2.2910
  321TIP3    H218151   2.840   4.921   0.645 -0.1434 -0.6906  1.4440
  322TIP3   OH218152   0.063   1.894   7.172  0.4711 -0.4390  0.2471
  322TIP3    H118153   0.044   1.813   7.126 -1.1099  0.5451 -0.9566
  322TIP3    H218154   0.015   1.886   7.255 -2.0554  0.3107 -1.0327
  323TIP3   OH218155   6.574   5.276   0.716 -0.0455 -0.4346 -0.0698
  323TIP3    H118156   6.529   5.265   0.632  0.4102 -0.4505 -0.3165
  323TIP3    H218157   6.510   5.246   0.781 -0.8710  0.7678 -0.2961
  324TIP3   OH218158   2.983   1.346   6.374  0.3575  0.1672  0.2706
  324TIP3    H118159   2.942   1.332   6.288  0.4837  1.7521 -0.0729
  324TIP3    H218160   3.036   1.267   6.388 -0.3459 -0.5058 -0.6990
  325TIP3   OH218161   2.454   4.076   0.321 -0.0803  0.5388 -0.0478
  325TIP3    H118162   2.510   4.134   0.269  1.7810 -0.2552  0.9581
  325TIP3    H218163   2.433   4.126   0.400 -1.2039  1.0011 -0.6240
  326TIP3   OH218164   0.901   6.056   1.196 -0.7850 -0.0311  0.7096
  326TIP3    H118165   0.838   5.997   1.237 -0.3067 -0.7266  0.4594
  326TIP3    H218166   0.867   6.144   1.214 -1.3283 -0.3678  1.3764
  327TIP3   OH218167   3.225   0.408   6.810  0.8317 -0.4811 -0.2591
  327TIP3    H118168   3.219   0.502   6.829  1.0535 -0.2402 -1.3037
  327TIP3    H218169   3.254   0.369   6.892  1.4156  0.4598  0.0017
  328TIP3   OH218170   4.244   2.860   6.419 -0.5482 -0.2358 -0.4491
  328TIP3    H118171   4.325   2.908   6.436 -0.9737 -0.1057  1.3882
  328TIP3    H218172   4.266   2.769   6.437 -0.9865 -0.1086  0.7805
  329TIP3   OH218173   2.341   5.209   0.261 -0.1198  0.8220  0.0680
  329TIP3    H118174   2.433   5.234   0.254  0.8195 -2.3084 -0.5481
  329TIP3    H218175   2.343   5.122   0.301 -2.7143  0.1499 -1.0558
  330TIP3   OH218176   6.560   3.558   1.061  0.8579  0.1004  0.1357
  330TIP3    H118177   6.513   3.637   1.035  1.1513  0.3706  0.4135
  330TIP3    H218178   6.643   3.590   1.095  2.0954 -0.4715 -2.1490
  331TIP3   OH218179   2.243   1.854   4.329 -0.0688  0.2003  0.4617
  331TIP3    H118180   2.336   1.851   4.354  1.2820  0.0952 -3.7340
  331TIP3    H218181   2.217   1.762   4.327  0.2115  0.1222  0.2357
  332TIP3   OH218182   6.592   2.559   0.433  0.3076 -0.0390  0.9691
  332TIP3    H118183   6.588   2.640   0.381 -1.2624 -0.4881  0.3238
  332TIP3    H218184   6.685   2.549   0.454  0.5024  2.1546  1.4298
  333TIP3   OH218185   6.579   3.240   7.546  0.1727 -0.2223 -0.3873
  333TIP3    H118186   6.513   3.230   7.477  0.0535  0.9312 -0.4512
  333TIP3    H218187   6.587   3.152   7.583 -1.8528 -0.3087  0.0093
  334TIP3   OH218188   1.356   2.129   6.309  0.1822  0.0664  0.1087
  334TIP3    H118189   1.380   2.173   6.228 -0.0320  1.4191  0.7597
  334TIP3    H218190   1.268   2.095   6.293  0.5793 -0.6734 -0.5974
  335TIP3   OH218191   5.961   1.343   7.422 -0.1042  0.4936  0.3444
  335TIP3    H118192   5.904   1.379   7.353  1.2157  0.8862 -0.5727
  335TIP3    H218193   5.952   1.404   7.495 -0.3073  0.9477 -0.0559
  336TIP3   OH218194   3.309   3.091   0.528  0.0733 -0.1560 -0.0245
  336TIP3    H118195   3.244   3.105   0.597  0.0560  1.3855 -0.3292
  336TIP3    H218196   3.352   3.009   0.552  0.6033  0.7209  2.2443
  337TIP3   OH218197   4.942   1.013   0.334  0.3640  0.5466  0.4160
  337TIP3    H118198   4.888   1.080   0.294  0.4049 -0.1818 -0.9188
  337TIP3    H218199   4.880   0.950   0.371  0.2850 -0.0831 -0.7614
  338TIP3   OH218200   5.581   3.845   0.738  0.3400  0.2980 -0.4728
  338TIP3    H118201   5.518   3.902   0.782 -2.2080 -1.1943 -1.9366
  338TIP3    H218202   5.645   3.824   0.806 -1.7814  0.4319  1.7329
  339TIP3   OH218203   6.119   0.985   6.770 -0.5734  0.1639 -0.6913
  339TIP3    H118204   6.075   1.051   6.823  0.8617  0.1065  0.6521
  339TIP3    H218205   6.185   1.034   6.721 -0.8091 -0.0136 -1.1919
  340TIP3   OH218206   2.970   0.129   6.521  0.2897 -0.1315 -0.4345
  340TIP3    H118207   3.031   0.067   6.560 -1.1259 -0.8041  0.7912
  340TIP3    H218208   2.960   0.098   6.430  2.6853  0.7494 -1.0662
  341TIP3   OH218209   2.588   6.012   7.374  0.1937  0.2560  0.2338
  341TIP3    H118210   2.608   6.100   7.405 -3.5337  0.9163  1.2351
  341TIP3    H218211   2.616   6.011   7.283 -0.5930  2.8666 -0.1125
  342TIP3   OH218212   2.367   1.928   1.370  0.2937  0.1456 -0.3946
  342TIP3    H118213   2.372   2.023   1.362 -1.7700  0.3746  0.4836
  342TIP3    H218214   2.430   1.895   1.306 -0.4574  2.0766 -2.2372
  343TIP3   OH218215   1.609   3.868   7.675  0.0608 -0.2465 -0.0262
  343TIP3    H118216   1.565   3.789   7.642  0.0618 -0.4634  0.4716
  343TIP3    H218217   1.643   3.841   7.761  0.2776  0.2248  0.0353
  344TIP3   OH218218   3.894   2.836   0.411  0.4400 -0.4220 -0.7158
  344TIP3    H118219   3.931   2.920   0.386 -0.4843 -0.3010 -1.7756
  344TIP3    H218220   3.883   2.840   0.506 -0.1011  0.8654 -0.8217
  345TIP3   OH218221   0.275   5.566   0.832  0.0285 -0.2069 -0.5118
  345TIP3    H118222   0.187   5.540   0.806  0.1755 -0.9013 -0.3410
  345TIP3    H218223   0.267   5.658   0.857 -0.3468  0.1465 -1.8892
  346TIP3   OH218224   0.991   0.932   0.971 -0.0427  0.4706 -0.2699
  346TIP3    H118225   0.929   0.896   0.908  1.1258  1.8154 -2.2984
  346TIP3    H218226   0.937   0.981   1.033 -1.1654 -0.2067 -0.6918
  347TIP3   OH218227   2.186   2.934   6.808 -0.0187 -0.1777 -0.2038
  347TIP3    H118228   2.239   2.894   6.877  0.9560 -3.0929 -2.4372
  347TIP3    H218229   2.222   3.022   6.798  2.6711 -1.1393  0.1996
  348TIP3   OH218230   1.940   0.689   5.662  0.0681 -0.5829  0.2481
  348TIP3    H118231   1.853   0.726   5.648 -0.0107 -0.6155  0.6352
  348TIP3    H218232   1.932   0.598   5.634  0.8624  0.1944 -2.9144
  349TIP3   OH218233   4.350   4.960   5.704 -0.0205 -0.4795  0.2472
  349TIP3    H118234   4.379   4.877   5.740  1.7960 -0.7643 -1.7025
  349TIP3    H218235   4.428   5.015   5.702 -0.5580  0.2853 -1.1054
  350TIP3   OH218236   4.849   1.607   1.104  0.1540  0.3011  0.0198
  350TIP3    H118237   4.874   1.514   1.103 -0.7771 -0.0710  2.7265
  350TIP3    H218238   4.921   1.652   1.061  0.6381 -1.6525 -1.3605
  351TIP3   OH218239   5.122   1.119   1.067  0.1408 -0.2260  0.1781
  351TIP3    H118240   5.169   1.091   1.145 -2.8834  1.3537  2.7933
  351TIP3    H218241   5.032   1.088   1.080 -0.7143  1.0318 -2.1562
  352TIP3   OH218242   3.302   4.351   2.454  0.4021 -0.1209 -0.0487
  352TIP3    H118243   3.309   4.446   2.451  0.4072 -0.1208 -2.6369
  352TIP3    H218244   3.392   4.319   2.455  0.4058 -0.1375  2.0402
  353TIP3   OH218245   5.146   5.190   7.267  0.1348 -0.5740 -0.2936
  353TIP3    H118246   5.123   5.167   7.177 -1.0355 -1.1532  0.1360
  353TIP3    H218247   5.120   5.114   7.318  0.4230 -0.0841  0.5928
  354TIP3   OH218248   0.248   5.930   7.525 -0.4317 -1.2051  0.4222
  354TIP3    H118249   0.288   5.915   7.440 -0.5434  0.6298  0.0145
  354TIP3    H218250   0.304   5.883   7.587  1.6772  0.2742 -0.2612
  355TIP3   OH218251   6.372   2.659   7.085 -0.5069  0.0432  0.2146
  355TIP3    H118252   6.384   2.744   7.127  0.6522 -0.9836  2.1023
  355TIP3    H218253   6.277   2.650   7.075 -0.8237  0.5333  2.2979
  356TIP3   OH218254   6.214   1.238   1.196 -0.1193 -0.5023  0.0220
  356TIP3    H118255   6.268   1.173   1.242  0.3425 -0.1682 -0.0471
  356TIP3    H218256   6.267   1.317   1.196 -0.4521 -0.2798 -0.3931
  357TIP3   OH218257   3.897   1.516   7.501  0.1304 -0.8694  0.2933
  357TIP3    H118258   3.853   1.526   7.416 -1.2243  1.1581  1.1645
  357TIP3    H218259   3.829   1.485   7.560  0.4604 -0.0050  1.1439
  358TIP3   OH218260   3.814   3.978   1.593 -0.4079  0.3821  0.2372
  358TIP3    H118261   3.841   4.041   1.659 -1.8019  1.7600 -0.4511
  358TIP3    H218262   3.792   4.031   1.516 -2.2679 -0.8320 -0.1457
  359TIP3   OH218263   2.196   5.796   7.254 -0.0886  0.1034 -0.3386
  359TIP3    H118264   2.189   5.849   7.174  1.3091  0.6978 -0.0954
  359TIP3    H218265   2.172   5.708   7.226  1.1947  0.1277 -1.6407
  360TIP3   OH218266   0.522   3.676   1.030  0.1867  0.6075  0.1722
  360TIP3    H118267   0.568   3.673   1.114 -1.7150  1.0124  1.2979
  360TIP3    H218268   0.443   3.625   1.044 -0.0654  0.4901 -1.4691
  361TIP3   OH218269   0.296   2.929   2.502  0.1280 -0.2170 -0.8417
  361TIP3    H118270   0.259   2.841   2.514 -1.2992  0.4878  0.2089
  361TIP3    H218271   0.222   2.981   2.471 -0.1882  1.5377  2.4529
  362TIP3   OH218272   1.062   2.467   6.584  0.1769 -0.2602 -0.0584
  362TIP3    H118273   0.994   2.519   6.540  0.1217  0.2812  0.6618
  362TIP3    H218274   1.131   2.459   6.519 -0.2626 -0.1940 -0.5442
  363TIP3   OH218275   2.485   3.489   6.240 -0.1698  0.2302  0.3629
  363TIP3    H118276   2.471   3.557   6.174  0.2036 -0.1736 -0.1424
  363TIP3    H218277   2.492   3.408   6.189 -2.1167 -0.4224  1.0556
  364TIP3   OH218278   2.981   0.861   1.046  0.1868 -0.5109 -0.0637
  364TIP3    H118279   2.926   0.798   1.092  3.6463 -2.8551  1.1937
  364TIP3    H218280   3.001   0.819   0.962  0.5263  0.0201 -0.2538
  365TIP3   OH218281   0.093   1.930   0.498 -0.3538 -0.0630  0.3301
  365TIP3    H118282   0.035   1.980   0.441  0.4341  0.2417 -0.2114
  365TIP3    H218283   0.180   1.966   0.482  0.0137 -0.6166  1.0245
  366TIP3   OH218284   1.063   2.865   5.394 -0.8096  0.4919 -0.4021
  366TIP3    H118285   1.047   2.946   5.442 -0.4171  0.5517 -0.3657
  366TIP3    H218286   1.130   2.889   5.329  0.6588 -0.2157  0.7911
  367TIP3   OH218287   4.691   2.713   0.095  0.6339  0.4820 -0.0707
  367TIP3    H118288   4.691   2.650   0.167 -0.5147  0.5451  0.0064
  367TIP3    H218289   4.756   2.778   0.121  0.3608  0.4099  0.8433
  368TIP3   OH218290   5.007   3.964   0.665 -0.3889  0.3303  0.0859
  368TIP3    H118291   4.979   3.976   0.756 -1.9124  0.1608 -0.3358
  368TIP3    H218292   4.965   3.882   0.638 -0.6050  0.7815 -1.0028
  369TIP3   OH218293   3.679   3.196   5.823 -0.1019 -0.4757 -1.0258
  369TIP3    H118294   3.597   3.163   5.787 -1.0816  0.1129  0.5548
  369TIP3    H218295   3.740   3.123   5.813 -0.9017 -1.0370 -1.9509
  370TIP3   OH218296   2.310   3.693   0.467  0.1899 -0.1838 -0.1361
  370TIP3    H118297   2.273   3.758   0.527  0.4649 -0.1173 -0.0316
  370TIP3    H218298   2.382   3.740   0.424  0.7636 -0.5927  0.3675
  371TIP3   OH218299   3.797   4.232   7.544 -0.2693  0.6322  0.8199
  371TIP3    H118300   3.774   4.161   7.605  0.8273 -0.1663  0.3496
  371TIP3    H218301   3.867   4.280   7.589  2.2018 -1.3494 -0.6462
  372TIP3   OH218302   3.544   3.220   0.093 -0.0742  0.2497  0.3432
  372TIP3    H118303   3.576   3.243   0.180  3.1645  0.0625 -0.6590
  372TIP3    H218304   3.451   3.245   0.094  0.4838  2.7654  2.9569
  373TIP3   OH218305   3.341   2.735   1.208  0.0537  0.0457 -0.0092
  373TIP3    H118306   3.423   2.764   1.169  0.7335 -1.9772 -0.2451
  373TIP3    H218307   3.343   2.640   1.197 -1.4792 -0.2196  1.6288
  374TIP3   OH218308   1.424   2.788   2.815 -0.1425  0.9240  0.0703
  374TIP3    H118309   1.491   2.796   2.747  0.1273 -1.3854 -0.0022
  374TIP3    H218310   1.344   2.769   2.767 -0.2595  0.7761  0.3291
  375TIP3   OH218311   2.931   0.578   7.280 -0.4823 -0.1225 -0.1786
  375TIP3    H118312   2.971   0.492   7.287 -0.3765 -0.1822 -1.3412
  375TIP3    H218313   2.896   0.582   7.191 -4.0089 -0.4622  1.0379
  376TIP3   OH218314   0.841   4.555   6.992  0.0401 -0.1067  0.4200
  376TIP3    H118315   0.863   4.615   7.063  0.2261  2.0871 -1.3837
  376TIP3    H218316   0.745   4.549   6.995  0.0037  0.4677  0.4705
  377TIP3   OH218317   0.419   1.201   7.430 -0.0061 -0.4850  0.6257
  377TIP3    H118318   0.459   1.178   7.346 -1.1791  1.2709 -0.4739
  377TIP3    H218319   0.472   1.274   7.463 -1.4061  0.9977 -0.2224
  378TIP3   OH218320   4.782   4.972   7.088  0.2689  0.0704 -0.5613
  378TIP3    H118321   4.858   4.930   7.127  0.7845  1.1330 -0.3919
  378TIP3    H218322   4.785   4.947   6.996  1.9488  1.6276 -0.9904
  379TIP3   OH218323   3.905   6.427   1.951  0.3156  0.0255 -0.1961
  379TIP3    H118324   3.846   6.359   1.920  0.9626 -2.0237  2.6328
  379TIP3    H218325   3.983   6.417   1.897 -0.5121  0.2592 -1.4778
  380TIP3   OH218326   5.650   5.539   6.347  0.2268  0.2963 -0.5840
  380TIP3    H118327   5.682   5.452   6.369 -1.2476 -0.4198 -1.1168
  380TIP3    H218328   5.719   5.577   6.293  0.7528 -0.6726 -0.6175
  381TIP3   OH218329   4.865   6.102   0.619  0.0968  0.4948  0.4232
  381TIP3    H118330   4.821   6.157   0.684 -1.0570 -0.6431  0.6533
  381TIP3    H218331   4.899   6.163   0.554 -0.3506  1.5273  1.1392
  382TIP3   OH218332   0.754   2.120   0.145 -0.3047 -0.7182  0.0362
  382TIP3    H118333   0.826   2.078   0.192  0.6350  0.1506 -0.5845
  382TIP3    H218334   0.716   2.180   0.209  0.2838 -0.3213  0.0230
  383TIP3   OH218335   1.343   1.143   7.240 -0.0918 -0.0387 -0.2644
  383TIP3    H118336   1.266   1.137   7.184 -1.8141  1.7235  1.7411
  383TIP3    H218337   1.373   1.233   7.230 -0.1562  0.1807  1.2482
  384TIP3   OH218338   5.695   3.550   1.756 -0.1587 -0.5203  0.6216
  384TIP3    H118339   5.668   3.477   1.700 -0.9047 -0.4235  0.8496
  384TIP3    H218340   5.617   3.572   1.807  0.0684  0.4305  0.5734
  385TIP3   OH218341   1.492   1.270   0.597  0.1077  0.4451 -0.0331
  385TIP3    H118342   1.533   1.203   0.653 -0.6359  1.3011  1.6009
  385TIP3    H218343   1.565   1.327   0.573  0.8281 -1.0973 -1.7680
  386TIP3   OH218344   3.428   0.628   1.949 -0.0592 -0.1604  0.4163
  386TIP3    H118345   3.508   0.678   1.933  0.4006 -0.6280  1.1979
  386TIP3    H218346   3.364   0.666   1.889  0.1417  1.6897  1.2885
  387TIP3   OH218347   6.274   1.624   1.508  0.4437  0.7093  0.1967
  387TIP3    H118348   6.292   1.537   1.543  0.1842  0.9128  0.8489
  387TIP3    H218349   6.315   1.624   1.422  0.2669 -0.1304  0.1048
  388TIP3   OH218350   3.833   1.221   0.980 -0.1437 -0.0977 -0.0008
  388TIP3    H118351   3.910   1.165   0.984 -1.1501 -1.4644  2.4868
  388TIP3    H218352   3.792   1.200   0.896  2.1542  0.7332 -1.4283
  389TIP3   OH218353   1.170   3.826   7.081 -0.2452 -0.1850  0.5064
  389TIP3    H118354   1.086   3.869   7.100 -1.5050 -3.2880  2.7357
  389TIP3    H218355   1.146   3.742   7.042  1.9992 -0.1502 -1.1081
  390TIP3   OH218356   0.091   5.141   7.236 -0.0933  0.4493  0.1961
  390TIP3    H118357  -0.002   5.120   7.238 -0.3445  1.5309  1.1160
  390TIP3    H218358   0.109   5.179   7.322  0.9737  1.1473 -0.3080
  391TIP3   OH218359   1.530   0.224   7.681  0.0144 -0.0114  0.1764
  391TIP3    H118360   1.459   0.162   7.699 -1.8425  1.9040 -0.2126
  391TIP3    H218361   1.492   0.287   7.620  2.5740  0.2256 -1.3011
  392TIP3   OH218362   4.992   1.560   0.501 -0.0407 -0.9661 -0.0204
  392TIP3    H118363   5.082   1.551   0.470  0.4107 -2.6808  1.6339
  392TIP3    H218364   4.939   1.526   0.429  0.6088 -0.1371 -0.9272
  393TIP3   OH218365   0.543   3.960   7.595  0.1922  0.3461 -0.3638
  393TIP3    H118366   0.533   3.896   7.666 -0.8242  1.7737  0.8494
  393TIP3    H218367   0.634   3.950   7.567 -0.3241 -2.6859 -1.3155
  394TIP3   OH218368   1.764   2.427   1.912 -0.4759 -0.4206 -0.1633
  394TIP3    H118369   1.697   2.402   1.976 -1.1508  1.8103  0.0965
  394TIP3    H218370   1.714   2.458   1.836  0.2938 -0.7516 -0.8176
  395TIP3   OH218371   2.098   4.584   0.149 -0.4654 -0.2187  0.5831
  395TIP3    H118372   2.077   4.663   0.099 -1.1005 -0.1623  0.9199
  395TIP3    H218373   2.158   4.535   0.093  1.8431  1.5857  1.3346
  396TIP3   OH218374   4.217   5.658   0.697  0.0808  0.0336 -0.5196
  396TIP3    H118375   4.179   5.690   0.779  0.4132  0.3152 -0.4727
  396TIP3    H218376   4.240   5.567   0.715  0.4197  0.1794 -0.2042
  397TIP3   OH218377   0.486   3.659   7.612  0.9052 -0.3644  0.0601
  397TIP3    H118378   0.401   3.682   7.651 -0.0701  1.5965 -2.8318
  397TIP3    H218379   0.463   3.604   7.537  2.0623  0.8459 -1.2383
  398TIP3   OH218380   2.866   4.880   6.357 -0.0559 -0.7080 -0.1476
  398TIP3    H118381   2.894   4.794   6.389 -1.2567 -0.6578  1.1110
  398TIP3    H218382   2.947   4.931   6.352  1.1659 -2.6575 -3.5973
  399TIP3   OH218383   0.862   0.567   1.765 -0.1717 -0.4594  0.2641
  399TIP3    H118384   0.839   0.506   1.835 -0.7560 -1.1783 -0.5423
  399TIP3    H218385   0.883   0.511   1.690  2.5753  0.2080  0.4363
  400TIP3   OH218386   4.413   0.599   6.904  0.2201  0.1687 -0.1813
  400TIP3    H118387   4.343   0.606   6.840 -0.5141  0.5755  0.6457
  400TIP3    H218388   4.493   0.590   6.852 -0.4240 -0.1405 -1.1355
  401TIP3   OH218389   1.664   4.036   1.483  0.5864 -0.5638 -0.3191
  401TIP3    H118390   1.750   4.021   1.444  0.1931  0.5734 -1.7046
  401TIP3    H218391   1.602   4.015   1.414 -0.0865  3.3915 -1.1565
  402TIP3   OH218392   6.015   3.058   0.137 -0.1629  0.2935  0.1549
  402TIP3    H118393   5.968   3.108   0.070  0.0308 -0.0336 -0.2290
  402TIP3    H218394   5.995   2.966   0.117 -0.5645  0.2167  0.8913
  403TIP3   OH218395   1.063   0.934   1.716 -0.2764 -0.1117 -0.5869
  403TIP3    H118396   1.007   0.903   1.644  0.3382 -1.1816 -0.6292
  403TIP3    H218397   1.009   0.998   1.762 -1.3700 -0.7695 -0.8994
  404TIP3   OH218398   6.424   1.345   0.345 -0.2067  0.3416  0.1265
  404TIP3    H118399   6.401   1.265   0.393  0.3070 -0.0658 -0.2890
  404TIP3    H218400   6.520   1.347   0.346 -0.1973  0.4969 -0.6007
  405TIP3   OH218401   2.017   1.665   0.201 -0.1114  0.0170  0.1194
  405TIP3    H118402   1.942   1.693   0.149  0.9192  0.8955 -0.9754
  405TIP3    H218403   1.982   1.600   0.261 -1.7050  0.2796 -0.4683
  406TIP3   OH218404   6.600   2.139   5.969 -0.0717 -0.4523  0.4170
  406TIP3    H118405   6.520   2.185   5.995  0.0878  0.1302 -0.0937
  406TIP3    H218406   6.594   2.135   5.873 -0.3064 -1.9093  0.4714
  407TIP3   OH218407   2.178   3.571   7.258 -0.1283 -0.1383 -0.3709
  407TIP3    H118408   2.153   3.655   7.219  1.1849  0.3387 -0.2129
  407TIP3    H218409   2.257   3.545   7.211  0.6744 -0.2526  0.9996
  408TIP3   OH218410   6.293   0.295   7.588 -0.4080  0.1245  0.2284
  408TIP3    H118411   6.303   0.212   7.635  0.1207  1.2000  2.1312
  408TIP3    H218412   6.380   0.335   7.592 -0.3399  0.2484 -1.7589
  409TIP3   OH218413   3.611   5.603   1.562  0.8959 -0.0943 -0.4701
  409TIP3    H118414   3.588   5.519   1.603  1.4118  0.2109  0.4503
  409TIP3    H218415   3.621   5.664   1.635  1.2637  0.5963 -1.0874
  410TIP3   OH218416   2.998   4.581   0.232 -0.7194  0.1822  0.0882
  410TIP3    H118417   3.007   4.588   0.327 -1.2292 -0.6359  0.2004
  410TIP3    H218418   3.084   4.552   0.202 -1.6479 -3.8650  0.7684
  411TIP3   OH218419   5.730   4.789   0.947 -0.0411  0.1209  0.2146
  411TIP3    H118420   5.658   4.846   0.971  0.0668 -0.2077  1.3805
  411TIP3    H218421   5.708   4.759   0.858 -0.2252  1.7270 -0.3254
  412TIP3   OH218422   4.069   2.986   7.479 -1.0325 -0.6933  0.1183
  412TIP3    H118423   4.135   2.964   7.414 -0.3587 -1.4595  1.0339
  412TIP3    H218424   4.073   2.914   7.542  0.3508  1.3740  2.5650
  413TIP3   OH218425   4.158   5.259   0.042 -0.0440 -0.0396  0.3480
  413TIP3    H118426   4.079   5.293  -0.001  0.8945  0.8034 -0.7846
  413TIP3    H218427   4.153   5.164   0.030 -0.5918  0.0563 -0.2770
  414TIP3   OH218428   3.333   2.153   5.969 -0.0081  0.9337  0.2208
  414TIP3    H118429   3.311   2.070   5.927 -1.0204  0.7686  1.0655
  414TIP3    H218430   3.307   2.220   5.905 -1.8725  0.6980  0.6917
  415TIP3   OH218431   1.100   1.358   1.069  0.2279  0.5382 -0.1034
  415TIP3    H118432   1.128   1.273   1.037 -1.6832 -0.6840  1.3030
  415TIP3    H218433   1.120   1.356   1.163 -0.2434  1.4748  0.0305
  416TIP3   OH218434   4.152   1.937   0.129  0.0567  0.2324  0.3432
  416TIP3    H118435   4.242   1.962   0.151 -0.9134  1.9711  2.8636
  416TIP3    H218436   4.151   1.841   0.137  1.4084  0.2849  1.5873
  417TIP3   OH218437   1.516   5.571   0.229 -0.4262 -0.1870  0.0546
  417TIP3    H118438   1.536   5.610   0.144  2.2238 -1.7496 -0.1606
  417TIP3    H218439   1.563   5.625   0.292  2.2481 -2.0747 -0.1299
  418TIP3   OH218440   6.643   6.120   0.990 -1.0175  0.5407  0.3705
  418TIP3    H118441   6.608   6.039   0.954  2.4676  0.1484 -2.7715
  418TIP3    H218442   6.593   6.190   0.948 -1.2058  0.0067 -0.2998
  419TIP3   OH218443   3.066   6.096   7.459  0.1413 -0.0783 -0.3927
  419TIP3    H118444   3.115   6.100   7.542  0.5305  0.1492 -0.6330
  419TIP3    H218445   3.070   6.004   7.434  0.7481 -0.0050 -0.5862
  420TIP3   OH218446   3.908   0.875   5.424  0.2968 -0.6913  0.2419
  420TIP3    H118447   3.989   0.828   5.441  0.7654 -0.0760 -0.2704
  420TIP3    H218448   3.858   0.817   5.367  0.1025 -1.3356  1.0426
  421TIP3   OH218449   5.607   0.166   7.227  0.2232  0.5438 -0.0602
  421TIP3    H118450   5.671   0.167   7.297  0.0605 -0.3287  0.1130
  421TIP3    H218451   5.548   0.239   7.247 -2.6914 -2.4106  3.4520
  422TIP3   OH218452   3.859   1.953   6.062 -0.4584 -0.7686  0.6064
  422TIP3    H118453   3.893   1.907   6.139 -1.2829  1.5429  2.4576
  422TIP3    H218454   3.925   2.020   6.043 -2.0732  1.3193  1.9212
  423TIP3   OH218455   5.931   3.233   7.677  0.4114  0.5962 -0.7923
  423TIP3    H118456   6.024   3.241   7.653  0.2629 -0.7468 -2.0179
  423TIP3    H218457   5.884   3.271   7.602 -0.0273  0.1027 -0.7739
  424TIP3   OH218458   1.961   4.232   7.461 -0.5797  0.5410 -0.1167
  424TIP3    H118459   1.884   4.280   7.492  0.7559  0.7267  3.3175
  424TIP3    H218460   1.949   4.143   7.493  0.4492  0.4820  0.1441
  425TIP3   OH218461   6.568   4.367   6.574  0.2197 -0.1224  0.1528
  425TIP3    H118462   6.591   4.293   6.630 -0.0616  0.6657  1.3426
  425TIP3    H218463   6.645   4.423   6.575 -0.3008  0.6126  0.9828
  426TIP3   OH218464   6.033   5.099   0.534 -0.6636  0.4433  0.3427
  426TIP3    H118465   5.939   5.094   0.517 -0.2351 -5.2334 -2.9986
  426TIP3    H218466   6.067   5.156   0.466 -1.5336  3.2107  2.0684
  427TIP3   OH218467   2.945   5.518   1.014 -0.2937 -0.5591 -0.1370
  427TIP3    H118468   2.921   5.524   1.107 -1.2281  0.6851 -0.4274
  427TIP3    H218469   3.011   5.449   1.011 -0.5303 -0.9021  1.3955
  428TIP3   OH218470   4.221   5.328   6.384 -0.1802  0.0530 -0.0089
  428TIP3    H118471   4.281   5.348   6.312 -0.4391 -1.7483 -0.7741
  428TIP3    H218472   4.135   5.321   6.342 -0.4809 -0.1491  0.6223
  429TIP3   OH218473   2.311   3.226   6.487 -0.3046  0.2123  0.2463
  429TIP3    H118474   2.262   3.308   6.478  1.4428  1.3038  0.1348
  429TIP3    H218475   2.346   3.209   6.400  0.1940 -0.0967  0.5059
  430TIP3   OH218476   5.559   2.906   7.446 -0.1060 -0.2024  0.5038
  430TIP3    H118477   5.631   2.949   7.400 -0.7578 -0.9163 -1.2555
  430TIP3    H218478   5.591   2.818   7.464 -1.8032 -1.9982 -3.9859
  431TIP3   OH218479   3.428   4.969   1.839  0.1776  0.5788 -0.2487
  431TIP3    H118480   3.514   4.932   1.822  0.7217  1.4081  0.6456
  431TIP3    H218481   3.437   5.062   1.817 -0.6256  0.5878 -0.5894
  432TIP3   OH218482   0.863   0.528   1.485 -0.0032  0.4496  0.1843
  432TIP3    H118483   0.901   0.457   1.434 -2.1289  1.6476 -3.3945
  432TIP3    H218484   0.776   0.495   1.509  0.5058  0.3913  2.1203
  433TIP3   OH218485   3.154   1.298   5.961 -1.1208 -0.4314  0.4986
  433TIP3    H118486   3.160   1.239   5.886 -3.1006  0.2361 -0.2679
  433TIP3    H218487   3.157   1.386   5.923 -1.3016 -0.0731  1.2928
  434TIP3   OH218488   5.869   5.516   6.184  0.3631  0.3179 -0.0594
  434TIP3    H118489   5.938   5.493   6.246 -1.3545  0.4169  1.9907
  434TIP3    H218490   5.905   5.492   6.099  2.5894 -0.3936  0.9987
  435TIP3   OH218491   3.631   2.962   1.345 -0.0201 -0.9788 -0.6994
  435TIP3    H118492   3.636   2.885   1.288 -0.2220 -0.8246 -0.9204
  435TIP3    H218493   3.654   2.927   1.432  1.8916 -0.9237 -1.1236
  436TIP3   OH218494   2.001   4.413   5.838 -0.1330  0.0262 -0.2234
  436TIP3    H118495   1.927   4.472   5.855  0.4947  1.3350 -1.7751
  436TIP3    H218496   1.973   4.360   5.764 -0.1062 -0.5668  0.1887
  437TIP3   OH218497   0.187   4.087   0.708 -0.0190  0.1133 -0.0203
  437TIP3    H118498   0.249   4.149   0.746  3.5100 -3.3279  0.4898
  437TIP3    H218499   0.192   4.103   0.614 -0.5890  1.7315  0.2021
  438TIP3   OH218500   0.637   6.558   2.457  0.0638  0.1492 -0.1324
  438TIP3    H118501   0.554   6.510   2.458 -0.1642  0.5381  1.2280
  438TIP3    H218502   0.701   6.494   2.426 -0.5691 -0.4563 -0.2071
  439TIP3   OH218503   6.069   1.903   1.304 -0.1491  0.1774  0.2247
  439TIP3    H118504   6.162   1.881   1.309  0.1853  1.5427  0.3913
  439TIP3    H218505   6.064   1.994   1.335 -1.3606  0.5385 -0.9119
  440TIP3   OH218506   2.964   1.854   5.157 -0.3009  0.4928 -0.9105
  440TIP3    H118507   2.930   1.943   5.154  1.0465  1.0273 -0.7428
  440TIP3    H218508   3.057   1.864   5.179  0.0529 -0.9007 -1.6503
  441TIP3   OH218509   2.053   5.043   5.475  0.7789 -0.6315 -0.2729
  441TIP3    H118510   2.134   4.993   5.464  0.3165 -0.9343 -3.2223
  441TIP3    H218511   2.013   5.007   5.554  2.3957 -2.1000 -0.0686
  442TIP3   OH218512   4.713   0.050   6.830 -0.0675  0.2553 -0.7709
  442TIP3    H118513   4.770  -0.026   6.833 -2.9454 -2.0980 -0.8723
  442TIP3    H218514   4.746   0.102   6.756  1.2464 -1.5607 -1.5317
  443TIP3   OH218515   1.271   1.629   6.901  0.2390  0.8907  0.1755
  443TIP3    H118516   1.244   1.537   6.903  1.5945  0.4663 -0.4980
  443TIP3    H218517   1.188   1.678   6.909 -0.4939 -0.3663  0.5742
  444TIP3   OH218518   1.316   1.337   5.692 -0.0726 -0.0701 -0.3166
  444TIP3    H118519   1.358   1.327   5.607  1.6233 -3.2488  0.7324
  444TIP3    H218520   1.251   1.267   5.695  0.7245 -0.7899  1.4054
  445TIP3   OH218521   5.629   0.464   1.702  0.2611  0.2570  0.0997
  445TIP3    H118522   5.558   0.468   1.766 -0.1551  2.4672 -0.4404
  445TIP3    H218523   5.708   0.484   1.752  0.2500 -0.2099  0.3140
  446TIP3   OH218524   0.698   1.246   1.789 -0.2774 -0.2390 -0.1689
  446TIP3    H118525   0.623   1.266   1.733 -0.4368 -0.6699 -0.1119
  446TIP3    H218526   0.661   1.239   1.877  0.0550  0.9852  0.0878
  447TIP3   OH218527   1.208   6.279   0.422 -0.1018 -0.3291  0.4519
  447TIP3    H118528   1.209   6.251   0.513 -0.1080 -1.5309  0.0954
  447TIP3    H218529   1.251   6.209   0.374  0.5022  0.5933 -0.3994
  448TIP3   OH218530   1.028   2.363   0.856 -0.4563 -0.3611 -0.1217
  448TIP3    H118531   1.063   2.341   0.770  1.1319 -1.0581  0.6711
  448TIP3    H218532   1.102   2.400   0.904 -1.7634  1.8054  0.3729
  449TIP3   OH218533   1.930   0.698   1.035 -0.4201  0.3276  0.0300
  449TIP3    H118534   1.992   0.770   1.027  0.6734 -0.0305  3.6344
  449TIP3    H218535   1.981   0.626   1.073 -2.0947 -1.4802 -0.9472
  450TIP3   OH218536   1.686   2.407   2.323  0.4690 -0.0842 -0.2458
  450TIP3    H118537   1.736   2.376   2.398  0.4501 -0.7115 -0.4889
  450TIP3    H218538   1.614   2.457   2.362  1.0585  0.5065  0.1154
  451TIP3   OH218539   4.059   1.261   6.168  0.2162 -0.1794  0.4294
  451TIP3    H118540   3.969   1.254   6.199  0.3529 -0.8896  0.6979
  451TIP3    H218541   4.052   1.266   6.073 -0.0250 -3.4375  0.1511
  452TIP3   OH218542   5.014   5.197   7.621  0.0441 -0.2883  0.2584
  452TIP3    H118543   5.013   5.150   7.537  0.0425 -0.4979  0.3746
  452TIP3    H218544   5.079   5.266   7.608 -1.4992  1.0685 -0.6543
  453TIP3   OH218545   4.069   4.966   6.608  0.5734 -0.0673 -0.4936
  453TIP3    H118546   3.997   5.010   6.562 -0.5652  1.5796  2.5422
  453TIP3    H218547   4.026   4.916   6.677  2.2325 -1.2082 -0.2333
  454TIP3   OH218548   5.024   6.360   6.626  0.3767 -0.1774 -0.4181
  454TIP3    H118549   5.107   6.403   6.648  0.8211 -1.1397 -0.1759
  454TIP3    H218550   4.996   6.403   6.545  1.0252  0.2680 -0.4166
  455TIP3   OH218551   6.160   5.877   0.711  0.0478  0.2616  0.3687
  455TIP3    H118552   6.147   5.783   0.698  3.0495 -0.2376  0.4406
  455TIP3    H218553   6.244   5.896   0.669 -1.1252  3.2437 -0.9137
  456TIP3   OH218554   5.635   5.850   7.493  0.0885  0.2141  0.2476
  456TIP3    H118555   5.654   5.787   7.563  0.1833  0.5282  0.5103
  456TIP3    H218556   5.677   5.931   7.523  1.7534 -0.1143 -1.0405
  457TIP3   OH218557   1.097   6.544   7.630  0.3589  0.0827  0.4872
  457TIP3    H118558   1.029   6.511   7.687 -0.7397  0.0714 -0.7780
  457TIP3    H218559   1.065   6.527   7.541  1.9747  0.1372 -0.1515
  458TIP3   OH218560   1.363   4.494   0.771  0.1201 -0.5861 -0.5877
  458TIP3    H118561   1.328   4.418   0.817 -2.0551  0.3555 -0.6085
  458TIP3    H218562   1.427   4.457   0.710  0.6636 -2.1617  0.8424
  459TIP3   OH218563   4.302   1.308   1.402 -0.3014 -0.1378  0.2425
  459TIP3    H118564   4.329   1.320   1.493 -0.0003  3.7910 -0.2127
  459TIP3    H218565   4.212   1.276   1.408 -0.0140 -0.7590  1.8655
  460TIP3   OH218566   5.645   0.033   6.286 -0.2525 -0.1248 -0.0395
  460TIP3    H118567   5.635  -0.055   6.251 -0.1734 -0.5357  0.9516
  460TIP3    H218568   5.696   0.080   6.219 -0.5495 -0.7336 -0.7037
  461TIP3   OH218569   4.794   0.953   0.717 -0.0848  0.1634  0.6199
  461TIP3    H118570   4.873   0.902   0.734 -0.3150 -1.0688 -1.6455
  461TIP3    H218571   4.732   0.924   0.784  0.7641 -0.2667  1.2410
  462TIP3   OH218572   4.026   5.819   5.537  0.3827 -0.3605 -0.0386
  462TIP3    H118573   4.047   5.857   5.622 -0.7370 -1.1098  0.6046
  462TIP3    H218574   3.990   5.891   5.486  0.9075  0.0539  0.1722
  463TIP3   OH218575   5.841   6.433   6.455 -0.1788  0.0537  0.1170
  463TIP3    H118576   5.820   6.486   6.532 -0.7733 -0.9822  0.6966
  463TIP3    H218577   5.756   6.400   6.425  0.2407 -1.3793  0.3955
  464TIP3   OH218578   6.501   2.433   1.045 -0.2917 -0.0507  0.0442
  464TIP3    H118579   6.418   2.388   1.062 -0.1228  0.0992  1.3721
  464TIP3    H218580   6.476   2.521   1.019 -0.5924 -0.5854 -1.5973
  465TIP3   OH218581   4.319   2.257   1.092 -0.0466  0.2656 -0.2140
  465TIP3    H118582   4.234   2.238   1.132 -0.4187  2.0063 -0.0884
  465TIP3    H218583   4.379   2.195   1.133 -0.8653  0.4372  1.3212
  466TIP3   OH218584   3.103   2.108   0.543 -0.1361  0.4352  0.1152
  466TIP3    H118585   3.194   2.084   0.556 -0.3379 -0.3717  0.1076
  466TIP3    H218586   3.080   2.157   0.622  0.7644  2.1191 -0.6306
  467TIP3   OH218587   2.837   1.086   7.146  0.0072 -0.6518  0.9778
  467TIP3    H118588   2.807   1.165   7.192 -0.4505 -0.4300  0.3251
  467TIP3    H218589   2.762   1.027   7.148 -0.2233 -0.4116  0.0302
  468TIP3   OH218590   3.456   2.706   0.088  0.1665  0.3569 -0.1881
  468TIP3    H118591   3.424   2.779   0.035  1.3795  0.8937 -0.2212
  468TIP3    H218592   3.510   2.747   0.156  0.2845 -0.4556  0.2247
  469TIP3   OH218593   6.582   0.305   7.015  0.1083  0.3870  0.1879
  469TIP3    H118594   6.677   0.316   7.013  0.2284 -0.5680  0.0439
  469TIP3    H218595   6.559   0.319   7.107  0.5901 -0.7684  0.5136
  470TIP3   OH218596   1.775   5.786   0.373  0.0856  0.7290  0.0936
  470TIP3    H118597   1.848   5.775   0.312  0.9719 -0.7595  1.3672
  470TIP3    H218598   1.816   5.805   0.457 -0.8062 -2.0912  1.2786
  471TIP3   OH218599   1.582   0.966   1.806 -0.5374 -0.5477  0.4083
  471TIP3    H118600   1.498   0.959   1.761 -0.7214 -2.2029  0.9344
  471TIP3    H218601   1.559   1.003   1.892 -0.1273  3.0615 -0.8713
  472TIP3   OH218602   5.801   4.802   6.647 -0.2148 -0.4228  0.0987
  472TIP3    H118603   5.718   4.850   6.656 -0.3922 -0.3314 -1.5897
  472TIP3    H218604   5.865   4.856   6.691 -0.7715  0.3581 -0.0260
  473TIP3   OH218605   1.976   3.734   0.179 -0.6395 -0.7960  0.2973
  473TIP3    H118606   1.953   3.701   0.266  1.2124 -2.0807  0.3528
  473TIP3    H218607   1.908   3.799   0.160 -0.6084  0.1895  3.0691
  474TIP3   OH218608   1.809   6.047   0.021  0.5460 -0.2959 -0.5242
  474TIP3    H118609   1.881   5.984   0.026 -0.2369 -1.3521 -1.7857
  474TIP3    H218610   1.835   6.106  -0.049  0.4078 -0.3967 -0.6615
  475TIP3   OH218611   1.057   0.680   6.712 -0.0109  0.0951 -0.3177
  475TIP3    H118612   1.116   0.687   6.637  0.5057 -1.1866 -0.0641
  475TIP3    H218613   1.069   0.590   6.744 -1.2450  0.1768  0.4590
  476TIP3   OH218614   1.472   4.190   1.621  0.0124 -0.1185  0.3013
  476TIP3    H118615   1.380   4.181   1.595 -0.3427  0.9136  1.1442
  476TIP3    H218616   1.516   4.116   1.578 -1.0747 -0.2178 -0.7067
  477TIP3   OH218617   4.198   1.684   0.557  0.5858  0.1912 -0.0806
  477TIP3    H118618   4.218   1.672   0.464 -0.3669 -2.2311 -0.0537
  477TIP3    H218619   4.280   1.663   0.602  1.2041  1.8814 -0.3287
  478TIP3   OH218620   0.355   3.293   0.033  0.1178 -0.3543  0.0945
  478TIP3    H118621   0.373   3.212   0.082 -0.3048 -1.8712 -2.0924
  478TIP3    H218622   0.424   3.296  -0.034 -0.5070  0.5338 -0.5263
  479TIP3   OH218623   3.520   1.679   6.427 -0.0046 -0.5549 -0.3652
  479TIP3    H118624   3.482   1.599   6.463 -0.5808 -0.0104  0.2597
  479TIP3    H218625   3.457   1.707   6.360 -0.2624 -0.1404  0.0450
  480TIP3   OH218626   2.998   6.120   0.068  0.2924  0.3318  0.6050
  480TIP3    H118627   2.943   6.042   0.067 -0.3326  0.6313 -3.1593
  480TIP3    H218628   2.936   6.193   0.080  0.4087  0.4462  0.5131
  481TIP3   OH218629   5.430   3.066   1.164  0.0919 -1.2954  0.2413
  481TIP3    H118630   5.426   2.974   1.137 -2.4225 -0.6853 -1.8823
  481TIP3    H218631   5.432   3.115   1.081  1.9805  0.5933  1.3197
  482TIP3   OH218632   5.769   5.818   1.670  0.8008 -0.3627 -0.1263
  482TIP3    H118633   5.690   5.845   1.716  2.1900  0.2820  2.0007
  482TIP3    H218634   5.773   5.723   1.681  0.5773 -0.3390  0.1535
  483TIP3   OH218635   2.754   0.953   6.112  0.1315 -0.2869  0.5217
  483TIP3    H118636   2.697   0.902   6.055  0.1876 -0.1340  0.3289
  483TIP3    H218637   2.842   0.941   6.076  0.0825  0.3289  0.1903
  484TIP3   OH218638   1.000   4.570   0.746 -0.6109  0.2845  0.4259
  484TIP3    H118639   1.039   4.649   0.710 -0.4147  0.6995  1.5100
  484TIP3    H218640   0.917   4.560   0.699  1.0167 -0.9861 -2.3892
  485TIP3   OH218641   1.042   6.316   0.085 -0.0209  0.2908  0.3861
  485TIP3    H118642   1.116   6.255   0.077  0.4459  0.9554 -0.5650
  485TIP3    H218643   0.970   6.272   0.039 -0.2266 -0.3464  1.2925
  486TIP3   OH218644   4.888   4.065   7.425  0.3267 -0.5070  0.5581
  486TIP3    H118645   4.887   4.128   7.497  1.9568 -0.3457  0.4758
  486TIP3    H218646   4.893   3.979   7.467  2.2253 -0.3780  0.6828
  487TIP3   OH218647   1.802   1.305   0.183  0.1063 -0.2781 -0.5369
  487TIP3    H118648   1.835   1.369   0.246  0.1472 -0.7528 -0.0691
  487TIP3    H218649   1.732   1.259   0.229  1.4921 -2.0399 -0.0699
  488TIP3   OH218650   2.190   0.327   0.272 -0.1845 -0.5362 -0.1793
  488TIP3    H118651   2.245   0.259   0.312  2.2523 -0.2327 -2.7277
  488TIP3    H218652   2.206   0.405   0.325  0.8514 -0.7828 -0.1151
  489TIP3   OH218653   1.245   4.551   6.241 -0.1028  0.2958  0.0898
  489TIP3    H118654   1.208   4.514   6.161 -1.4383  0.6637  0.4930
  489TIP3    H218655   1.286   4.632   6.213 -0.0648  0.1400 -0.3110
  490TIP3   OH218656   1.468   4.895   0.305  0.3044 -0.2474 -0.4299
  490TIP3    H118657   1.419   4.976   0.323  1.0912  0.1214  0.1307
  490TIP3    H218658   1.552   4.908   0.349  0.9873 -0.7810 -1.5252
  491TIP3   OH218659   6.428   2.954   5.907  0.0514 -0.2811 -0.1430
  491TIP3    H118660   6.383   3.022   5.959  0.0359 -0.7393  0.4480
  491TIP3    H218661   6.392   2.964   5.819  1.2605  1.5909 -0.4824
  492TIP3   OH218662   4.596   5.179   1.358 -0.2994  0.2346  0.2455
  492TIP3    H118663   4.613   5.263   1.399 -0.6348  0.4915 -0.1329
  492TIP3    H218664   4.588   5.198   1.265  2.0862 -0.5749 -0.1926
  493TIP3   OH218665   2.169   4.262   6.525 -0.1333 -0.1597  0.2316
  493TIP3    H118666   2.154   4.353   6.499 -2.3657 -0.3313  0.7016
  493TIP3    H218667   2.119   4.211   6.462 -1.0785 -0.8871  1.5256
  494TIP3   OH218668   2.502   0.446   7.597  0.4343  0.3573  0.0391
  494TIP3    H118669   2.427   0.420   7.649  0.2418  3.6536  1.6940
  494TIP3    H218670   2.577   0.405   7.640 -0.2386 -2.1593 -1.0538
  495TIP3   OH218671   0.656   3.402   6.330 -0.5018 -0.2795  0.0186
  495TIP3    H118672   0.681   3.397   6.237  0.1194 -3.4859  0.2438
  495TIP3    H218673   0.567   3.437   6.329 -0.0131  1.0651 -1.6464
  496TIP3   OH218674   6.443   6.484   7.267 -0.1154 -0.4112  0.2797
  496TIP3    H118675   6.457   6.403   7.218  0.2141 -0.1450 -0.0847
  496TIP3    H218676   6.364   6.469   7.318  0.2068 -1.1285  0.5800
  497TIP3   OH218677   4.869   5.854   6.698  0.6987 -0.6040 -0.3713
  497TIP3    H118678   4.873   5.949   6.704  0.5145 -0.5623 -0.8975
  497TIP3    H218679   4.950   5.829   6.653  1.9640 -0.8991  1.9279
  498TIP3   OH218680   6.267   6.566   0.066  0.5583  0.0917  0.3249
  498TIP3    H118681   6.271   6.660   0.086 -0.0252 -0.0037  0.9681
  498TIP3    H218682   6.197   6.559   0.001  1.3691  0.2227 -0.5736
  499TIP3   OH218683   3.402   5.026   1.560 -0.6573 -0.1107  0.7493
  499TIP3    H118684   3.487   4.986   1.541 -0.8892  0.4734 -1.8291
  499TIP3    H218685   3.366   4.972   1.630  1.5965 -0.6631  1.5949
  500TIP3   OH218686   4.518   3.069   7.128  0.5328 -0.1094 -0.2754
  500TIP3    H118687   4.573   3.023   7.064  0.9638  2.0961 -1.6118
  500TIP3    H218688   4.471   3.134   7.076 -1.5970 -0.3673  1.2178
  501TIP3   OH218689   2.121   2.077   6.586  0.0523 -0.5601  0.3605
  501TIP3    H118690   2.132   2.056   6.679 -1.1124 -0.1889  0.5959
  501TIP3    H218691   2.210   2.098   6.556  0.3693 -0.1478  1.5189
  502TIP3   OH218692   2.596   1.691   6.926  0.5081 -0.3774 -0.2900
  502TIP3    H118693   2.652   1.732   6.991  1.3186 -2.9873  0.8124
  502TIP3    H218694   2.657   1.642   6.870 -0.4677 -1.4495 -0.4626
  503TIP3   OH218695   6.063   1.892   0.677 -0.2840  0.2654 -0.2439
  503TIP3    H118696   5.999   1.880   0.747 -0.8846  1.9196 -0.4543
  503TIP3    H218697   6.036   1.974   0.634 -0.0596 -0.7802 -2.5385
  504TIP3   OH218698   5.527   3.639   2.377  0.3920  0.2358 -0.3429
  504TIP3    H118699   5.452   3.580   2.366  0.5961 -0.0980  0.0139
  504TIP3    H218700   5.603   3.582   2.371  0.5605  0.2281  1.3222
  505TIP3   OH218701   2.455   4.648   6.046 -0.1646 -0.1713  0.3021
  505TIP3    H118702   2.534   4.667   5.996  0.4182  0.0336  1.2722
  505TIP3    H218703   2.393   4.716   6.021  0.9200  1.3583  1.5854
  506TIP3   OH218704   2.904   1.684   1.614 -0.3584 -0.2863 -0.2145
  506TIP3    H118705   2.817   1.716   1.590 -0.4304 -0.9378 -0.8765
  506TIP3    H218706   2.949   1.674   1.531 -0.4301 -2.0961 -0.0792
  507TIP3   OH218707   1.419   2.246   6.986 -0.5290  0.3072 -0.1647
  507TIP3    H118708   1.356   2.314   7.010  0.1340  0.6156  0.8013
  507TIP3    H218709   1.487   2.252   7.054  0.2444 -0.3939 -0.8488
  508TIP3   OH218710   0.267   1.158   6.900 -0.4509  0.1299  0.3116
  508TIP3    H118711   0.309   1.162   6.814  1.4347  0.3811  1.1972
  508TIP3    H218712   0.195   1.221   6.894  0.4974  1.1681 -0.6583
  509TIP3   OH218713   1.937   4.412   1.759  0.1636 -0.6807  0.2265
  509TIP3    H118714   2.000   4.468   1.715 -0.3754  0.0857  0.3986
  509TIP3    H218715   1.971   4.323   1.748  0.7933 -0.3648 -0.4491
  510TIP3   OH218716   3.128   0.334   7.271 -0.9313 -0.2500 -0.0759
  510TIP3    H118717   3.137   0.362   7.363  0.1123 -0.2788 -0.1573
  510TIP3    H218718   3.070   0.258   7.275  2.0666 -2.7027  1.0892
  511TIP3   OH218719   6.070   0.438   0.859 -0.2933 -0.1241 -0.3211
  511TIP3    H118720   6.014   0.366   0.888  0.2923 -0.9173 -1.1168
  511TIP3    H218721   6.048   0.510   0.919 -0.5544 -1.0850  0.7889
  512TIP3   OH218722   5.403   1.252   0.421  0.1131  0.1137 -0.3211
  512TIP3    H118723   5.372   1.286   0.338 -0.7235 -0.7876 -0.3939
  512TIP3    H218724   5.326   1.212   0.462  0.9762 -1.4322 -0.1312
  513TIP3   OH218725   3.963   1.225   1.932  0.1225  0.0730 -0.0143
  513TIP3    H118726   3.872   1.239   1.956 -0.3010  1.9023 -2.3392
  513TIP3    H218727   3.961   1.144   1.880 -0.5385  1.0187 -1.5326
  514TIP3   OH218728   2.566   3.242   7.362 -0.0042  0.1841  0.3157
  514TIP3    H118729   2.475   3.232   7.333  0.4333 -1.8248 -0.5774
  514TIP3    H218730   2.580   3.171   7.425  1.1032  0.0545 -0.0400
  515TIP3   OH218731   0.692   4.393   6.787  0.2311  0.3506 -0.1589
  515TIP3    H118732   0.769   4.446   6.809 -0.2261  0.8610  0.2188
  515TIP3    H218733   0.636   4.451   6.737  0.8166 -0.5115 -1.8822
  516TIP3   OH218734   5.091   0.371   7.720 -1.1423 -0.1591  0.3340
  516TIP3    H118735   5.035   0.394   7.794 -0.8282 -1.4360  1.0048
  516TIP3    H218736   5.134   0.290   7.748  3.1470  2.0641  1.0385
  517TIP3   OH218737   3.012   0.361   0.988 -0.0808 -0.2619 -0.4066
  517TIP3    H118738   3.035   0.283   1.038  0.1653  0.1143  0.0788
  517TIP3    H218739   2.949   0.407   1.044  0.2042  0.1679 -0.4348
  518TIP3   OH218740   5.732   5.015   7.432  0.3134 -1.0463 -0.1937
  518TIP3    H118741   5.683   5.070   7.371  1.0886  0.6523  0.6443
  518TIP3    H218742   5.725   4.927   7.395 -2.1754 -0.6691 -0.8263
  519TIP3   OH218743   0.223   1.119   2.116 -0.1442  0.1385  0.1316
  519TIP3    H118744   0.319   1.120   2.112 -0.1294 -0.4249  0.2097
  519TIP3    H218745   0.196   1.206   2.086  0.3038 -0.4364 -2.1689
  520TIP3   OH218746   6.110   4.583   6.422 -0.5969  0.8168 -0.0168
  520TIP3    H118747   6.197   4.580   6.462 -0.4327  1.2020 -0.3390
  520TIP3    H218748   6.114   4.657   6.361 -1.0887  0.7159 -0.1758
  521TIP3   OH218749   6.074   6.204   1.033  0.0606 -0.7382 -0.3451
  521TIP3    H118750   6.016   6.154   0.976 -1.6078  0.1791  0.4684
  521TIP3    H218751   6.067   6.294   1.002  0.8363 -0.5683 -0.0526
  522TIP3   OH218752   1.482   1.881   1.843  0.4944 -0.5237 -0.7585
  522TIP3    H118753   1.441   1.959   1.879  0.4807  0.6379 -3.1234
  522TIP3    H218754   1.547   1.855   1.909  0.5906  1.5433  0.0280
  523TIP3   OH218755   1.277   5.251   1.410 -0.6652  0.4649 -0.2598
  523TIP3    H118756   1.310   5.340   1.423 -0.8027  0.2269  2.2092
  523TIP3    H218757   1.268   5.242   1.316  0.8763  2.5111 -0.6678
  524TIP3   OH218758   2.963   6.244   0.406 -0.5135  0.5375  0.4205
  524TIP3    H118759   2.953   6.149   0.407  0.5088  0.4251  0.5801
  524TIP3    H218760   3.055   6.259   0.385 -1.3274  1.5636 -3.2593
  525TIP3   OH218761   1.765   0.317   2.167 -0.5530 -0.2723  0.3962
  525TIP3    H118762   1.789   0.392   2.223 -2.2964  2.3372 -2.1095
  525TIP3    H218763   1.675   0.296   2.191 -0.4243 -0.8987  0.3558
  526TIP3   OH218764   0.646   4.085   0.258 -0.1349  0.3815  0.5940
  526TIP3    H118765   0.637   4.011   0.199  0.4325  1.3927 -0.8152
  526TIP3    H218766   0.557   4.122   0.265 -0.5602 -0.7785  1.8499
  527TIP3   OH218767   3.847   0.490   0.138 -0.1113 -0.0606 -0.3762
  527TIP3    H118768   3.933   0.471   0.100  0.8147  2.0846  0.4436
  527TIP3    H218769   3.805   0.548   0.075 -0.3236  0.1079 -0.0804
  528TIP3   OH218770   4.816   5.512   7.222 -0.6676 -0.5463  0.2390
  528TIP3    H118771   4.784   5.426   7.197  0.1887 -0.9238  0.4287
  528TIP3    H218772   4.744   5.571   7.200 -0.5154 -1.0324 -1.7784
  529TIP3   OH218773   6.230   5.826   6.632 -0.1619 -0.8870 -0.2406
  529TIP3    H118774   6.318   5.853   6.659 -1.2311  2.4868  0.3624
  529TIP3    H218775   6.217   5.869   6.547 -1.6967 -0.1171  0.3551
  530TIP3   OH218776   1.868   2.086   5.276 -0.3427 -0.1237  0.3307
  530TIP3    H118777   1.791   2.031   5.263  0.5066 -1.7201  1.7061
  530TIP3    H218778   1.900   2.104   5.188 -2.2651  0.6202 -0.2855
  531TIP3   OH218779   2.796   3.315   0.597 -0.0914 -0.3894 -0.5666
  531TIP3    H118780   2.883   3.353   0.590 -0.8110  1.1633 -1.8137
  531TIP3    H218781   2.783   3.300   0.691  0.6794  1.4291 -0.1404
  532TIP3   OH218782   1.919   3.251   1.745 -0.1509 -0.1843  0.1257
  532TIP3    H118783   1.925   3.343   1.721  3.9042 -0.7802 -1.9918
  532TIP3    H218784   1.953   3.246   1.834 -2.2084  0.4693  1.0092
  533TIP3   OH218785   1.271   0.618   5.807  0.6073 -0.2770  0.4824
  533TIP3    H118786   1.309   0.618   5.895  2.2079 -0.4367 -0.1780
  533TIP3    H218787   1.307   0.695   5.764  0.9794 -0.9658 -0.4910
  534TIP3   OH218788   0.918   2.350   1.569 -0.7417  0.1825  0.0524
  534TIP3    H118789   0.845   2.362   1.630 -1.3351  2.7923 -1.0171
  534TIP3    H218790   0.899   2.411   1.497  1.6302 -0.3315 -1.1056
  535TIP3   OH218791   1.947   3.439   7.327 -0.0785  0.1424 -0.4229
  535TIP3    H118792   2.028   3.487   7.308 -0.9897  1.2944 -1.5566
  535TIP3    H218793   1.904   3.491   7.394 -0.0213 -0.3324 -0.0085
  536TIP3   OH218794   4.860   3.563   7.038 -0.3365 -0.3440 -0.5879
  536TIP3    H118795   4.770   3.594   7.047 -0.6421 -1.6390  1.4802
  536TIP3    H218796   4.856   3.469   7.056  1.1087 -0.9170 -2.8933
  537TIP3   OH218797   2.540   3.080   7.611 -0.2820  0.0544 -0.1325
  537TIP3    H118798   2.532   3.161   7.661 -0.6823  0.8181 -1.3948
  537TIP3    H218799   2.456   3.036   7.622  0.6114 -1.2226  2.2127
  538TIP3   OH218800   3.380   3.836   1.814 -0.3441 -0.2887  0.8827
  538TIP3    H118801   3.350   3.801   1.898 -2.1879 -1.2341 -0.1165
  538TIP3    H218802   3.459   3.785   1.794 -0.5164 -0.8225  1.5365
  539TIP3   OH218803   3.658   4.937   0.535  0.3506 -0.0631 -0.2638
  539TIP3    H118804   3.635   4.997   0.605 -1.2056  1.0168 -1.6312
  539TIP3    H218805   3.729   4.980   0.488  0.3074 -0.0338 -0.3026
  540TIP3   OH218806   2.358   2.197   6.482  0.1686 -0.1055  0.0872
  540TIP3    H118807   2.390   2.275   6.437 -1.2926  0.0599 -0.7354
  540TIP3    H218808   2.359   2.129   6.415  0.1496 -0.4533  0.4372
  541TIP3   OH218809   0.717   6.573   7.008  0.6479 -0.7295 -0.0791
  541TIP3    H118810   0.673   6.619   7.079  0.8604 -0.4780 -0.1062
  541TIP3    H218811   0.729   6.639   6.940  1.2384 -0.7413  0.0084
  542TIP3   OH218812   4.600   3.440   0.514  0.5043 -0.3268  0.1185
  542TIP3    H118813   4.646   3.461   0.596  0.2969 -0.2625  0.2215
  542TIP3    H218814   4.644   3.362   0.481 -1.0924 -2.0059  1.6862
  543TIP3   OH218815   0.683   3.098   6.358 -0.2504 -0.2617  0.0460
  543TIP3    H118816   0.667   3.190   6.335 -1.7826 -0.4962  0.0816
  543TIP3    H218817   0.722   3.060   6.279  0.8635  0.5166  0.1988
  544TIP3   OH218818   1.805   1.039   1.147 -0.2611 -0.6055 -0.4048
  544TIP3    H118819   1.797   0.997   1.233 -0.2167 -0.9716 -0.5797
  544TIP3    H218820   1.879   1.100   1.157 -1.0205  0.2458  0.1752
  545TIP3   OH218821   6.434   1.849   0.331  0.5234  0.0456  0.1466
  545TIP3    H118822   6.458   1.859   0.423  0.4086  1.7310  0.0271
  545TIP3    H218823   6.436   1.938   0.296 -0.2046 -0.4734 -1.2979
  546TIP3   OH218824   0.578   1.935   2.641  0.1850 -0.2187 -0.6549
  546TIP3    H118825   0.574   1.859   2.699  1.4763 -0.8001 -1.2825
  546TIP3    H218826   0.672   1.948   2.625  0.0486  1.8386 -0.1435
  547TIP3   OH218827   4.882   3.726   0.543 -0.8603 -0.0477 -0.0562
  547TIP3    H118828   4.893   3.703   0.450  0.7191  0.0284  0.0731
  547TIP3    H218829   4.940   3.665   0.589 -0.8997  0.5406  0.7871
  548TIP3   OH218830   3.678   3.595   6.790  0.5161  0.7348 -0.1855
  548TIP3    H118831   3.631   3.528   6.840 -0.7887  2.4331  0.9561
  548TIP3    H218832   3.698   3.664   6.854 -0.5586  2.6487 -1.8146
  549TIP3   OH218833   4.054   3.377   7.632  0.1041  0.0029 -0.0813
  549TIP3    H118834   4.148   3.370   7.651  0.6249  1.9878 -1.5237
  549TIP3    H218835   4.040   3.315   7.560 -0.0046 -1.2127  0.9535
  550TIP3   OH218836   5.183   2.699   0.196  0.9598 -0.2583 -0.3682
  550TIP3    H118837   5.114   2.658   0.248  0.8386  0.5859  0.1525
  550TIP3    H218838   5.136   2.742   0.124  0.9054  0.5813  0.1612
  551TIP3   OH218839   0.633   3.010   0.889 -0.1887  0.5901 -0.1443
  551TIP3    H118840   0.562   2.990   0.829  0.3003 -0.7712 -0.3018
  551TIP3    H218841   0.637   2.935   0.948  1.1173  0.6295 -0.1461
  552TIP3   OH218842   3.595   3.344   7.267 -0.0106 -0.4143 -0.5029
  552TIP3    H118843   3.521   3.405   7.270  0.3350  0.0504 -1.2283
  552TIP3    H218844   3.669   3.398   7.241  0.6164 -0.8587  0.3003
  553TIP3   OH218845   2.686   0.881   1.714  0.5207  0.2217 -0.4369
  553TIP3    H118846   2.715   0.801   1.669  1.5598 -1.6229  3.1367
  553TIP3    H218847   2.595   0.863   1.739  0.9451 -0.2153  0.9156
  554TIP3   OH218848   0.476   5.759   0.492 -0.0444  0.2219  0.5485
  554TIP3    H118849   0.507   5.704   0.564 -0.0423 -0.9297 -0.3004
  554TIP3    H218850   0.545   5.825   0.480  1.4261 -1.3791 -0.3152
  555TIP3   OH218851   4.016   3.807   6.076 -0.1009  0.2519  0.1684
  555TIP3    H118852   3.953   3.877   6.060  2.4381  2.7573  0.2738
  555TIP3    H218853   4.039   3.774   5.989  0.6289  1.4683 -0.1221
  556TIP3   OH218854   1.924   0.421   5.614  0.1158 -0.2218  0.3647
  556TIP3    H118855   1.883   0.347   5.569 -0.8683  0.4624  0.1168
  556TIP3    H218856   2.018   0.405   5.606 -0.0373 -0.2860 -1.6538
  557TIP3   OH218857   2.035   1.218   7.570  0.1812 -0.3600  0.2372
  557TIP3    H118858   1.972   1.190   7.503  1.5588 -0.4852 -1.0408
  557TIP3    H218859   1.996   1.298   7.607 -0.8701 -0.5959 -0.3048
  558TIP3   OH218860   1.562   2.571   0.837  0.1886  0.0799 -0.0344
  558TIP3    H118861   1.541   2.534   0.751  0.3636  1.9504 -0.9402
  558TIP3    H218862   1.643   2.526   0.863  0.6147  0.1015 -1.2565
  559TIP3   OH218863   5.418   6.439   0.130 -0.2727 -0.1710 -0.0927
  559TIP3    H118864   5.410   6.345   0.147  0.3749  0.1007  1.9155
  559TIP3    H218865   5.331   6.474   0.146 -0.8674 -0.5615 -2.1578
  560TIP3   OH218866   5.771   4.441   1.895 -0.5303  0.1402  0.1503
  560TIP3    H118867   5.789   4.485   1.978  0.3643 -0.0966  0.0961
  560TIP3    H218868   5.846   4.382   1.882 -0.8441 -0.1070 -0.6351
  561TIP3   OH218869   5.238   5.326   5.952 -0.4576  0.0643  0.5807
  561TIP3    H118870   5.224   5.419   5.965 -2.9413 -0.2685  0.6988
  561TIP3    H218871   5.288   5.298   6.030 -2.0508  0.8336  1.9393
  562TIP3   OH218872   3.543   4.927   5.571  0.3270  0.6752 -0.0766
  562TIP3    H118873   3.638   4.928   5.581  0.4228  0.9029 -0.9245
  562TIP3    H218874   3.525   4.849   5.519  0.0684  0.7248 -0.0635
  563TIP3   OH218875   5.044   0.086   7.232  0.0976 -0.2507 -0.0158
  563TIP3    H118876   4.954   0.064   7.257 -0.9720  1.7574 -1.7694
  563TIP3    H218877   5.089   0.104   7.315 -0.1587 -4.1089  1.1768
  564TIP3   OH218878   4.124   3.902   7.674 -0.2697 -0.4534  0.0246
  564TIP3    H118879   4.059   3.945   7.618  2.0876  3.3703 -0.1582
  564TIP3    H218880   4.100   3.927   7.763  0.6420  0.6610 -0.0175
  565TIP3   OH218881   5.142   2.961   0.798  0.3943  0.4379 -0.2898
  565TIP3    H118882   5.071   3.019   0.774  1.1496  1.1949 -0.7435
  565TIP3    H218883   5.100   2.876   0.814 -0.4030  0.4156 -2.2830
  566TIP3   OH218884   2.763   0.507   0.241 -0.6503  0.1560  0.3349
  566TIP3    H118885   2.817   0.579   0.273  1.6737 -0.5950 -1.5210
  566TIP3    H218886   2.674   0.541   0.240  0.2903  2.8276  0.0375
  567TIP3   OH218887   5.968   5.660   6.791 -0.1072  0.3413  0.0937
  567TIP3    H118888   6.004   5.620   6.712  0.0926  1.3308 -0.3287
  567TIP3    H218889   5.993   5.600   6.862 -0.8939 -0.9288 -0.6582
  568TIP3   OH218890   6.321   2.335   7.292  0.3955 -0.0172 -0.3961
  568TIP3    H118891   6.410   2.347   7.325 -0.2618  1.4595  0.9273
  568TIP3    H218892   6.333   2.298   7.205  2.3204  0.5945 -0.4299
  569TIP3   OH218893   6.201   2.488   6.810 -0.8755  0.2005 -0.0682
  569TIP3    H118894   6.111   2.510   6.785 -0.3004  2.2861 -0.4971
  569TIP3    H218895   6.255   2.553   6.765  0.8312 -0.8415  0.3980
  570TIP3   OH218896   2.274   3.859   2.500  0.6125  0.4198 -0.0344
  570TIP3    H118897   2.348   3.916   2.520  1.6185 -0.3668 -1.3123
  570TIP3    H218898   2.295   3.776   2.544  0.3666  0.2849 -0.1698
  571TIP3   OH218899   4.854   5.822   0.531 -0.2316 -0.0350  0.3898
  571TIP3    H118900   4.854   5.916   0.547 -1.9867  0.0553  0.1135
  571TIP3    H218901   4.770   5.806   0.488  1.6163 -1.1263 -3.2259
  572TIP3   OH218902   0.297   1.687   7.494  0.6145 -0.2822  0.4604
  572TIP3    H118903   0.242   1.755   7.534  0.8774 -0.1799  0.6510
  572TIP3    H218904   0.387   1.715   7.512  0.7255 -0.9115  0.9310
  573TIP3   OH218905   5.159   2.887   1.357 -0.2380  0.0486 -0.2199
  573TIP3    H118906   5.206   2.950   1.411 -0.2942 -0.0060 -0.1063
  573TIP3    H218907   5.225   2.852   1.297  0.4075 -1.6053  1.3385
  574TIP3   OH218908   3.451   4.610   2.385 -0.1654 -0.0893 -0.7690
  574TIP3    H118909   3.431   4.701   2.409  1.7265 -0.0359  0.9703
  574TIP3    H218910   3.546   4.610   2.372 -0.1455 -1.7984 -0.7825
  575TIP3   OH218911   3.607   3.505   6.343 -0.4424  0.0333  0.2350
  575TIP3    H118912   3.628   3.440   6.410  0.5644  0.9387  0.8215
  575TIP3    H218913   3.692   3.544   6.320 -0.9202  0.5178 -0.7533
  576TIP3   OH218914   2.493   1.202   7.739  0.2834  0.0262  0.5902
  576TIP3    H118915   2.409   1.158   7.724 -0.0764  1.2803 -1.4500
  576TIP3    H218916   2.522   1.229   7.652  0.8227  3.1954  1.6150
  577TIP3   OH218917   0.426   1.819   0.470  0.6107 -0.4291  0.0430
  577TIP3    H118918   0.424   1.892   0.533  0.2010 -0.8649  0.5367
  577TIP3    H218919   0.478   1.853   0.397 -0.5597  0.7904 -0.2652
  578TIP3   OH218920   3.117   5.505   5.630  0.3136 -0.5050  0.7658
  578TIP3    H118921   3.053   5.512   5.700 -4.9735 -1.6161 -3.3084
  578TIP3    H218922   3.111   5.588   5.584  1.9605 -0.6185  0.2958
  579TIP3   OH218923   2.164   2.541   1.206  0.1774 -0.4533 -0.0101
  579TIP3    H118924   2.208   2.623   1.186  0.7239 -0.7969 -0.2463
  579TIP3    H218925   2.089   2.566   1.260  0.1662  0.2261 -0.3334
  580TIP3   OH218926   2.089   1.632   4.295  0.1130 -0.0121 -0.0840
  580TIP3    H118927   2.076   1.569   4.224 -1.9365 -0.4556  0.6125
  580TIP3    H218928   2.011   1.687   4.293  0.7123  0.9070  0.9142
  581TIP3   OH218929   3.160   4.872   0.241  0.1395 -0.1022  0.0956
  581TIP3    H118930   3.214   4.910   0.172  0.1952 -0.7720 -0.2369
  581TIP3    H218931   3.131   4.788   0.205  1.0551 -0.9679  1.2978
  582TIP3   OH218932   3.485   3.742   7.101  0.1209 -0.0700  0.5933
  582TIP3    H118933   3.570   3.746   7.057  0.0748 -2.0859  0.2260
  582TIP3    H218934   3.427   3.796   7.047 -0.0576 -2.8333 -2.2219
  583TIP3   OH218935   0.851   0.333   7.146  0.3443  0.3487 -0.5886
  583TIP3    H118936   0.767   0.374   7.126  0.3434  1.3647  1.2572
  583TIP3    H218937   0.885   0.305   7.061 -1.1764  1.2310 -1.5411
  584TIP3   OH218938   6.613   2.572   7.001  0.0319 -0.6401 -0.1168
  584TIP3    H118939   6.650   2.645   6.951  0.3308 -0.7960 -0.1292
  584TIP3    H218940   6.524   2.600   7.022 -0.4360 -0.9517 -1.5529
  585TIP3   OH218941   2.622   6.050   0.291 -0.2850  0.3160 -0.4043
  585TIP3    H118942   2.570   5.971   0.280  0.8003 -0.4387 -0.2291
  585TIP3    H218943   2.713   6.021   0.282  0.1256  1.5783 -0.5870
  586TIP3   OH218944   0.756   6.272   6.892  0.1705 -0.4848 -0.2897
  586TIP3    H118945   0.701   6.343   6.924  0.7811 -0.1789  0.1130
  586TIP3    H218946   0.807   6.245   6.968  1.1054 -0.2567 -0.8130
  587TIP3   OH218947   3.544   6.291   7.014 -0.3153 -0.2580  0.0758
  587TIP3    H118948   3.492   6.348   6.958  1.9803  1.3058 -0.6016
  587TIP3    H218949   3.494   6.286   7.096 -2.2515 -0.1309 -1.0534
  588TIP3   OH218950   1.897   4.127   6.795 -0.3784 -0.0062 -0.4599
  588TIP3    H118951   1.965   4.177   6.839 -1.3635  0.8340  0.1598
  588TIP3    H218952   1.819   4.141   6.848 -1.5327  0.7361 -2.2517
  589TIP3   OH218953   5.728   2.002   0.717 -1.0439 -0.4669  0.0616
  589TIP3    H118954   5.752   1.926   0.772 -2.1046 -0.4013  0.6399
  589TIP3    H218955   5.646   1.977   0.676 -2.3677  1.0085  1.6360
  590TIP3   OH218956   1.431   3.473   6.958  0.0880  0.4458  0.2154
  590TIP3    H118957   1.460   3.497   7.046  0.1022  0.4894  0.1986
  590TIP3    H218958   1.408   3.556   6.917  0.1702  0.4336  0.1457
  591TIP3   OH218959   6.040   5.190   1.042 -0.4454 -0.7018 -0.0093
  591TIP3    H118960   6.089   5.212   0.963 -1.3187  1.0850 -0.1019
  591TIP3    H218961   5.999   5.272   1.068 -1.3935 -1.6005  1.4558
  592TIP3   OH218962   1.289   2.279   2.465 -0.0818  0.0204  0.2068
  592TIP3    H118963   1.251   2.354   2.512  1.3391  0.6108  0.4587
  592TIP3    H218964   1.310   2.313   2.379 -0.5105 -0.4315 -0.0848
  593TIP3   OH218965   2.650   3.549   0.908 -0.4583 -0.8991 -0.0811
  593TIP3    H118966   2.629   3.642   0.917 -0.9383 -0.7669 -2.1018
  593TIP3    H218967   2.620   3.526   0.820  0.2706 -2.8071  0.1249
  594TIP3   OH218968   2.470   1.989   7.159 -0.0144  0.0049  0.3660
  594TIP3    H118969   2.518   2.059   7.201  0.3331 -0.0724  0.1032
  594TIP3    H218970   2.483   1.913   7.216  0.2571 -0.0402  0.2451
  595TIP3   OH218971   5.735   4.611   6.903  0.3986 -0.1529  0.4445
  595TIP3    H118972   5.815   4.568   6.934  0.1524 -1.1148 -0.2195
  595TIP3    H218973   5.752   4.704   6.916  0.5503 -0.4517  2.8643
  596TIP3   OH218974   5.526   4.347   1.254 -0.0801  0.1209 -0.0479
  596TIP3    H118975   5.592   4.413   1.232  1.5149 -2.0283 -2.1795
  596TIP3    H218976   5.570   4.264   1.239 -2.8184 -1.4397  0.0657
  597TIP3   OH218977   5.673   5.065   0.229 -0.0644 -0.6374 -0.0917
  597TIP3    H118978   5.613   5.123   0.275  0.3953 -0.3518  0.1545
  597TIP3    H218979   5.621   4.989   0.207 -0.3958 -0.5939  0.5349
  598TIP3   OH218980   1.524   6.417   6.661 -0.7119 -0.5399  0.4507
  598TIP3    H118981   1.528   6.406   6.756  0.8705  0.3885  0.5213
  598TIP3    H218982   1.563   6.338   6.625 -0.5358 -0.5170  0.5945
  599TIP3   OH218983   0.213   3.239   7.270 -0.2163  0.3514  0.5502
  599TIP3    H118984   0.208   3.268   7.179 -0.0929  0.8093  0.6852
  599TIP3    H218985   0.157   3.300   7.318  0.9730  1.1388  1.0150
  600TIP3   OH218986   3.284   4.313   5.700 -0.1156  0.2078 -0.1074
  600TIP3    H118987   3.306   4.359   5.781 -0.4428  0.5773 -0.2218
  600TIP3    H218988   3.368   4.289   5.662  0.0987  1.2798 -0.3637
  601TIP3   OH218989   5.648   1.963   2.367  0.1791 -0.3254  0.2471
  601TIP3    H118990   5.645   1.919   2.282  1.5056 -1.1649  0.6146
  601TIP3    H218991   5.731   2.012   2.366 -0.0281  0.0567  0.8724
  602TIP3   OH218992   1.719   1.464   0.409  0.0882 -0.0185 -0.0377
  602TIP3    H118993   1.694   1.492   0.497  0.1865  0.3323 -0.1194
  602TIP3    H218994   1.676   1.527   0.351 -1.3222 -1.2100 -0.3291
  603TIP3   OH218995   0.668   3.581   0.319 -0.4035  0.6086  0.2147
  603TIP3    H118996   0.742   3.636   0.347  0.7066 -1.0784  0.7575
  603TIP3    H218997   0.682   3.498   0.364 -1.7690 -0.2907 -0.9423
  604TIP3   OH218998   3.870   5.553   7.499 -0.4532 -0.1874  0.7119
  604TIP3    H118999   3.891   5.460   7.508  2.6078  0.4820  1.7014
  604TIP3    H219000   3.877   5.570   7.405 -0.7002 -0.8738  0.5620
  605TIP3   OH219001   0.366   2.286   0.036 -0.4380  0.4622  0.1091
  605TIP3    H119002   0.370   2.373   0.076  1.1382  1.1183 -1.3789
  605TIP3    H219003   0.320   2.233   0.101 -2.4575  2.6296  0.5879
  606TIP3   OH219004   5.407   1.355   0.124 -0.0568 -0.1909  0.4802
  606TIP3    H119005   5.405   1.385   0.033 -1.0048 -0.1023  0.5140
  606TIP3    H219006   5.353   1.275   0.123  1.2010 -1.0684  0.6712
  607TIP3   OH219007   1.586   0.118   6.518  0.1752  0.1798  0.1041
  607TIP3    H119008   1.585   0.095   6.611  1.2873  0.8251  0.2965
  607TIP3    H219009   1.517   0.184   6.509 -0.4616 -0.4487  0.3031
  608TIP3   OH219010   3.843   1.311   6.538  0.1363  0.5917  0.3696
  608TIP3    H119011   3.779   1.320   6.609  1.9104  2.0672  1.8996
  608TIP3    H219012   3.876   1.222   6.546  1.4283  1.1934  2.5051
  609TIP3   OH219013   4.408   2.917   6.811  0.7227  0.1528  0.3981
  609TIP3    H119014   4.383   2.881   6.896 -1.4166  1.7903  0.5699
  609TIP3    H219015   4.345   2.879   6.750  1.0029  0.4758 -0.0941
  610TIP3   OH219016   0.509   5.550   6.374  0.1713  0.6529  0.3436
  610TIP3    H119017   0.481   5.604   6.448  0.0780  2.5581 -0.9879
  610TIP3    H219018   0.602   5.572   6.363 -0.1749  1.5515 -0.9913
  611TIP3   OH219019   5.299   3.150   0.947 -0.3658  0.0734  0.1413
  611TIP3    H119020   5.298   3.244   0.932 -0.9618  0.0780  0.2219
  611TIP3    H219021   5.230   3.115   0.890 -0.2624 -0.2990  0.2368
  612TIP3   OH219022   5.811   3.980   6.896 -0.3795  0.8434 -0.4007
  612TIP3    H119023   5.734   3.928   6.873  1.6210 -2.2321 -0.8499
  612TIP3    H219024   5.879   3.949   6.836  1.5826  2.3952  0.8969
  613TIP3   OH219025   0.463   3.497   1.739  0.3089  0.3103 -0.0721
  613TIP3    H119026   0.441   3.408   1.714 -1.0476  0.5839  0.0716
  613TIP3    H219027   0.437   3.503   1.831  0.7209  0.7490  0.0189
  614TIP3   OH219028   3.241   2.338   6.707  0.0718 -0.2994  0.1565
  614TIP3    H119029   3.215   2.393   6.634 -1.9501 -1.3335  0.0385
  614TIP3    H219030   3.301   2.393   6.759 -0.2955  1.2513 -1.0064
  615TIP3   OH219031   0.050   4.494   7.744 -0.9934  0.3069 -0.1595
  615TIP3    H119032  -0.027   4.471   7.691 -1.1943 -0.5292  0.4853
  615TIP3    H219033   0.027   4.467   7.833  0.0578  0.0313  0.0434
  616TIP3   OH219034   0.624   4.622   7.396 -0.2646 -0.0163  0.5369
  616TIP3    H119035   0.631   4.575   7.480  2.2319 -2.6979 -0.9745
  616TIP3    H219036   0.543   4.589   7.357  0.7041 -2.1339  0.1501
  617TIP3   OH219037   4.203   3.088   0.917 -0.1655 -0.1237 -0.2729
  617TIP3    H119038   4.132   3.065   0.977  1.3132 -0.1524  1.5703
  617TIP3    H219039   4.197   3.024   0.846 -0.1378 -2.1301  1.4273
  618TIP3   OH219040   4.838   5.045   0.832 -0.0545 -0.2895  0.3777
  618TIP3    H119041   4.888   5.082   0.759 -1.4232  1.8101  0.4268
  618TIP3    H219042   4.775   4.987   0.789  1.7495 -2.2914  0.2602
  619TIP3   OH219043   0.899   0.972   6.484 -0.3369  0.7159  0.3103
  619TIP3    H119044   0.958   0.921   6.539 -1.4763 -2.3785 -1.1054
  619TIP3    H219045   0.952   1.045   6.452  2.1802 -0.9094  0.5424
  620TIP3   OH219046   2.160   0.741   5.840 -0.5533  0.3557  0.0174
  620TIP3    H119047   2.082   0.740   5.784  0.6465 -0.6579 -1.7112
  620TIP3    H219048   2.206   0.660   5.819  0.8270  0.7768  1.2547
  621TIP3   OH219049   6.316   3.097   7.390  0.0750  0.2437 -0.5503
  621TIP3    H119050   6.264   3.171   7.356  1.7050  1.5624 -0.3154
  621TIP3    H219051   6.300   3.098   7.484 -2.9148 -2.2072 -0.8493
  622TIP3   OH219052   0.845   2.996   2.147 -0.0663 -0.3246 -0.1655
  622TIP3    H119053   0.895   2.930   2.194 -0.5830 -1.2613 -0.8880
  622TIP3    H219054   0.877   3.079   2.181  0.1152 -0.9475  1.2621
  623TIP3   OH219055   0.184   4.491   0.925  0.5597 -0.5805 -0.4761
  623TIP3    H119056   0.276   4.463   0.929  0.5281 -0.9698 -1.8561
  623TIP3    H219057   0.180   4.547   0.847 -0.1321  0.4321  0.2671
  624TIP3   OH219058   1.586   1.573   6.938 -0.0457 -0.7018 -0.1228
  624TIP3    H119059   1.526   1.559   7.011  0.0698 -0.8514 -0.0536
  624TIP3    H219060   1.535   1.620   6.872 -0.0442 -0.2493  0.2004
  625TIP3   OH219061   2.412   4.953   7.307 -0.4581 -0.3082 -0.6482
  625TIP3    H119062   2.392   5.046   7.294 -0.2063 -0.2256 -0.4324
  625TIP3    H219063   2.451   4.926   7.224  1.3795  0.2837 -0.0201
  626TIP3   OH219064   3.265   4.669   6.130  0.2340  0.3908  0.7402
  626TIP3    H119065   3.236   4.610   6.199  2.0674 -1.5875 -0.0529
  626TIP3    H219066   3.276   4.612   6.053  2.0780  1.7344 -0.0815
  627TIP3   OH219067   0.796   1.033   2.411 -0.3297 -0.1591 -0.0653
  627TIP3    H119068   0.762   1.027   2.322 -0.8254 -1.3471  0.1924
  627TIP3    H219069   0.792   0.943   2.445 -0.3660  0.3107  1.2348
  628TIP3   OH219070   5.911   1.039   0.169 -0.2665  0.4320 -0.0824
  628TIP3    H119071   5.943   1.013   0.082  0.2667  1.3328 -0.1698
  628TIP3    H219072   5.937   0.966   0.226 -1.9185 -0.8685 -0.8967
  629TIP3   OH219073   2.804   1.818   7.074 -0.2998 -0.9374  0.5487
  629TIP3    H119074   2.847   1.737   7.045  0.1848 -0.4623 -0.1011
  629TIP3    H219075   2.869   1.886   7.057 -0.9205 -0.3370  0.5421
  630TIP3   OH219076   1.901   4.058   7.114 -0.2998  0.1970  0.0402
  630TIP3    H119077   1.960   4.072   7.040 -2.0737 -0.6719 -1.6244
  630TIP3    H219078   1.959   4.055   7.190  1.6479  0.7118 -1.3395
  631TIP3   OH219079   5.050   2.674   7.109  0.2422 -0.1359 -0.4791
  631TIP3    H119080   5.020   2.610   7.174  1.1449  0.3153  0.4118
  631TIP3    H219081   4.978   2.735   7.100  0.4622  0.3696  0.8841
  632TIP3   OH219082   1.843   6.245   7.580 -0.1515 -1.0560  0.5402
  632TIP3    H119083   1.890   6.256   7.498 -0.0423 -1.4371  0.5461
  632TIP3    H219084   1.856   6.327   7.627  0.3364 -1.0783  0.4501
  633TIP3   OH219085   4.143   5.367   1.208  0.1576 -0.2701  0.0697
  633TIP3    H119086   4.090   5.366   1.288  1.0017  0.9329  0.6798
  633TIP3    H219087   4.233   5.370   1.239  0.5440 -0.7429 -0.9454
  634TIP3   OH219088   5.588   3.844   0.270  0.3165 -0.2053 -0.1341
  634TIP3    H119089   5.619   3.906   0.204 -1.1130 -0.4963 -1.1309
  634TIP3    H219090   5.623   3.760   0.242  0.0032 -0.2740 -0.3181
  635TIP3   OH219091   2.952   0.328   1.469 -0.8860 -0.2721  0.1139
  635TIP3    H119092   2.986   0.411   1.504 -0.1003 -0.3495 -0.4325
  635TIP3    H219093   3.003   0.261   1.515  0.9323 -0.3595 -1.8558
  636TIP3   OH219094   4.066   6.031   7.714 -0.7295  0.2082 -0.0080
  636TIP3    H119095   4.147   6.054   7.759  0.4568 -3.8708  0.3026
  636TIP3    H219096   4.080   6.061   7.624 -0.1323  2.0290  0.6331
  637TIP3   OH219097   1.827   2.552   0.154  0.3221 -0.2627  0.1599
  637TIP3    H119098   1.746   2.602   0.169 -0.2835 -1.4992  1.1561
  637TIP3    H219099   1.882   2.572   0.230  0.6830  0.0093 -0.1633
  638TIP3   OH219100   6.374   3.002   1.313  0.2436  0.2886  0.4155
  638TIP3    H119101   6.346   3.056   1.239 -0.2745 -0.3990  0.1071
  638TIP3    H219102   6.467   2.986   1.298  0.5229  1.4841  0.7595
  639TIP3   OH219103   2.683   2.137   2.062  0.3673 -0.6602 -0.0623
  639TIP3    H119104   2.749   2.189   2.107  1.9045 -2.6555  0.1708
  639TIP3    H219105   2.717   2.047   2.066 -0.9446 -1.3650 -2.5114
  640TIP3   OH219106   1.151   3.006   0.865  1.0516  0.6732 -0.0773
  640TIP3    H119107   1.111   3.053   0.792 -0.6810  0.0542  0.4361
  640TIP3    H219108   1.116   3.047   0.943 -1.0390 -1.7453  0.4051
  641TIP3   OH219109   5.491   0.470   7.575  0.1763 -0.1326 -0.2095
  641TIP3    H119110   5.418   0.533   7.575  0.9140  0.7815 -1.6252
  641TIP3    H219111   5.569   0.524   7.590  0.5812 -1.1234  1.4459
  642TIP3   OH219112   6.479   5.804   0.704  0.2867  0.0957 -0.4533
  642TIP3    H119113   6.457   5.711   0.712  0.7811  0.0917  1.1988
  642TIP3    H219114   6.533   5.809   0.625 -0.7377 -0.8006 -1.2619
  643TIP3   OH219115   2.661   3.600   0.383 -0.4389  0.0243 -0.7153
  643TIP3    H119116   2.636   3.669   0.322  0.3436  1.2070  0.2396
  643TIP3    H219117   2.663   3.520   0.330 -1.5451  0.6867 -1.8094
  644TIP3   OH219118   0.220   3.093   6.542  0.3486 -0.4161  0.3873
  644TIP3    H119119   0.295   3.059   6.494  0.1482 -0.8109  0.3484
  644TIP3    H219120   0.216   3.039   6.621  1.0405  0.6192  1.1549
  645TIP3   OH219121   3.136   6.565   6.333 -0.0434  0.3076  0.1895
  645TIP3    H119122   3.063   6.504   6.339  1.8453 -1.9818  1.4406
  645TIP3    H219123   3.172   6.569   6.422  0.6381  2.3831 -0.1056
  646TIP3   OH219124   5.979   6.535   5.793  0.0823  0.1724  0.0105
  646TIP3    H119125   6.026   6.607   5.750 -1.8652  0.9158 -1.0128
  646TIP3    H219126   5.887   6.562   5.790 -0.4132 -1.0312  2.2675
  647TIP3   OH219127   2.954   0.871   1.820  0.0177  0.4374 -0.4623
  647TIP3    H119128   2.862   0.873   1.794 -0.4612 -1.1266  0.8861
  647TIP3    H219129   2.984   0.961   1.812 -0.3686  0.3618 -4.9771
  648TIP3   OH219130   0.879   3.765   0.326  0.1283  0.1094  0.1977
  648TIP3    H119131   0.886   3.860   0.340  0.9685  0.3711 -1.7262
  648TIP3    H219132   0.970   3.734   0.329  0.0513 -0.2988 -1.2103
  649TIP3   OH219133   0.457   3.064   7.326 -0.7246 -0.6300 -0.6525
  649TIP3    H119134   0.369   3.085   7.295 -0.6425  0.3897 -0.2475
  649TIP3    H219135   0.443   3.012   7.405 -0.9971  0.5539  0.1029
  650TIP3   OH219136   4.318   0.619   0.641 -0.1097 -0.2472  0.1093
  650TIP3    H119137   4.378   0.651   0.708  1.7165 -0.1903 -1.4392
  650TIP3    H219138   4.363   0.542   0.605 -0.9069 -0.1261 -1.1853
  651TIP3   OH219139   4.264   3.070   0.067  0.2355  0.3066 -0.0008
  651TIP3    H119140   4.292   3.129  -0.003 -1.2657  0.1366 -0.7857
  651TIP3    H219141   4.184   3.030   0.034 -0.9211  0.7425  2.0860
  652TIP3   OH219142   3.923   0.043   2.015  0.1285 -0.1423  0.3771
  652TIP3    H119143   3.977   0.034   1.937 -2.5166 -1.5038 -1.4376
  652TIP3    H219144   3.895  -0.046   2.036 -1.4075  0.5007  1.2215
  653TIP3   OH219145   1.666   0.649   6.071 -0.2857  0.1146  0.7973
  653TIP3    H119146   1.702   0.572   6.115  0.5130  0.5209  0.8777
  653TIP3    H219147   1.668   0.627   5.978 -0.2162 -0.0288  0.8319
  654TIP3   OH219148   2.784   5.949   6.670 -0.4341  0.2064  0.0518
  654TIP3    H119149   2.858   5.889   6.682  0.3759  1.0541 -0.5528
  654TIP3    H219150   2.712   5.909   6.719  0.2812 -0.8971  0.2259
  655TIP3   OH219151   0.299   0.009   2.408 -0.4397  0.1604 -0.1292
  655TIP3    H119152   0.355  -0.065   2.429 -0.0120 -0.1619 -2.2062
  655TIP3    H219153   0.271  -0.006   2.318 -2.3562  1.2806  0.2174
  656TIP3   OH219154   1.167   3.210   5.304  0.0726 -0.6300 -0.3970
  656TIP3    H119155   1.258   3.237   5.320 -0.4641  1.5980 -0.6524
  656TIP3    H219156   1.174   3.127   5.257  1.9798 -0.4000 -0.5990
  657TIP3   OH219157   5.494   1.883   0.181  0.1043  0.0695 -0.0943
  657TIP3    H119158   5.412   1.833   0.182 -0.3214  0.7510 -0.1849
  657TIP3    H219159   5.559   1.823   0.144 -0.7066  0.0380 -1.5403
  658TIP3   OH219160   4.060   3.493   6.420 -0.2050  0.5495  0.2598
  658TIP3    H119161   4.028   3.404   6.426 -2.9190  1.4981  1.3975
  658TIP3    H219162   4.006   3.534   6.353  0.6871  1.4635  0.0749
  659TIP3   OH219163   0.182   2.737   7.227 -0.0887  0.2719 -0.4117
  659TIP3    H119164   0.142   2.810   7.274  0.5921 -0.2836  1.1196
  659TIP3    H219165   0.156   2.749   7.136 -2.0129  1.0434  0.1992
  660TIP3   OH219166   0.934   5.966   0.358  0.4248 -0.0264  0.0869
  660TIP3    H119167   0.934   5.902   0.288 -0.8061 -0.6227  0.6044
  660TIP3    H219168   0.943   6.051   0.314 -0.1105 -0.4065 -0.7707
  661TIP3   OH219169   2.930   3.751   7.196  0.5407  0.0475 -0.4511
  661TIP3    H119170   2.948   3.661   7.170  1.1564  0.0070  0.1022
  661TIP3    H219171   2.844   3.770   7.159  0.0477 -1.0381  0.1033
  662TIP3   OH219172   2.118   6.418   6.728  0.5284 -0.7651  0.9568
  662TIP3    H119173   2.159   6.332   6.722 -0.5457 -1.3436  1.5499
  662TIP3    H219174   2.040   6.404   6.782 -0.4116  0.2891 -0.0632
  663TIP3   OH219175   0.878   0.608   1.061 -0.0474 -0.0595 -0.2340
  663TIP3    H119176   0.840   0.530   1.101 -0.5847  0.0403 -0.5477
  663TIP3    H219177   0.961   0.577   1.024  0.4667 -0.1519  0.9527
  664TIP3   OH219178   1.000   6.063   6.060 -0.6330 -0.2704  0.3151
  664TIP3    H119179   0.952   5.980   6.062 -2.7365  0.8839  0.2083
  664TIP3    H219180   0.968   6.112   6.135 -0.2062  0.8576 -0.2077
  665TIP3   OH219181   5.319   6.457   0.619 -0.3651 -0.7737  0.1515
  665TIP3    H119182   5.296   6.537   0.571  1.1171 -0.7784 -0.6177
  665TIP3    H219183   5.236   6.425   0.653 -1.1997  0.2496 -0.8478
  666TIP3   OH219184   0.058   3.431   0.846 -0.2803  0.3173  0.3582
  666TIP3    H119185   0.015   3.469   0.922 -0.5641 -1.6681  1.2339
  666TIP3    H219186   0.029   3.340   0.844  0.6497  0.0084 -1.4435
  667TIP3   OH219187   0.540   1.897   0.248  0.6183  0.4307  0.1632
  667TIP3    H119188   0.586   1.933   0.172  0.6060  0.6600  0.2626
  667TIP3    H219189   0.510   1.811   0.220  0.8677  0.3946  0.0060
  668TIP3   OH219190   4.939   1.979   0.949  0.1846 -0.3772 -0.1663
  668TIP3    H119191   4.928   1.911   0.882 -1.1811 -2.2970  1.8959
  668TIP3    H219192   4.851   1.994   0.983  0.6969  1.3383  0.5270
  669TIP3   OH219193   1.351   0.181   5.783  0.0794 -0.4222  0.3956
  669TIP3    H119194   1.352   0.264   5.735 -2.7376 -1.6668 -2.2069
  669TIP3    H219195   1.433   0.137   5.758  0.9354  0.9615  0.6899
  670TIP3   OH219196   3.190   1.522   6.239  0.0062  0.1541  0.0902
  670TIP3    H119197   3.210   1.429   6.251 -0.2890 -0.1392 -1.3947
  670TIP3    H219198   3.097   1.529   6.260 -0.0883  0.0041 -0.2649
  671TIP3   OH219199   0.813   3.181   7.454  0.6656  0.5690 -0.2579
  671TIP3    H119200   0.903   3.151   7.460 -0.0761 -1.7070  0.2564
  671TIP3    H219201   0.766   3.109   7.411 -0.3157  3.0800 -3.8816
  672TIP3   OH219202   5.572   1.864   1.132  0.3133 -0.3347 -0.1384
  672TIP3    H119203   5.544   1.774   1.148 -0.4493  0.1396  1.3492
  672TIP3    H219204   5.508   1.898   1.070  0.6855 -0.8300 -0.8210
  673TIP3   OH219205   3.535   6.523   1.484  0.0512 -0.6825 -0.0018
  673TIP3    H119206   3.506   6.507   1.394 -0.3838 -0.0517  0.0238
  673TIP3    H219207   3.591   6.448   1.505  2.0104  0.2352 -1.5999
  674TIP3   OH219208   6.362   3.541   6.123 -0.0388  0.6186  0.0274
  674TIP3    H119209   6.322   3.621   6.091  0.1414 -0.0081 -1.8695
  674TIP3    H219210   6.296   3.473   6.110  0.7884 -0.0147 -1.0002
  675TIP3   OH219211   6.380   3.157   2.146 -0.3117  0.2967  0.1269
  675TIP3    H119212   6.346   3.151   2.236 -2.3342  2.1715 -0.4025
  675TIP3    H219213   6.371   3.069   2.110 -2.3858  0.1534  0.8556
  676TIP3   OH219214   1.093   3.563   7.016  0.1943 -0.4500  0.0707
  676TIP3    H119215   1.071   3.475   7.048  3.0943 -0.2728  3.0100
  676TIP3    H219216   1.009   3.610   7.017 -1.3619 -2.9520 -1.1794
  677TIP3   OH219217   5.079   3.278   2.308  0.2517 -0.2164 -0.2427
  677TIP3    H119218   5.029   3.197   2.299  1.1157 -0.6813 -1.0946
  677TIP3    H219219   5.167   3.249   2.334  0.1367  0.5754  1.1516
  678TIP3   OH219220   5.162   3.899   5.813 -0.3543 -0.5577 -0.0205
  678TIP3    H119221   5.100   3.832   5.786  0.3159 -0.1899 -2.8231
  678TIP3    H219222   5.205   3.863   5.891 -0.4413 -3.1122 -1.0668
  679TIP3   OH219223   0.207   5.978   1.365  0.3077 -0.1681  0.2623
  679TIP3    H119224   0.282   6.020   1.323 -0.6332  0.4335 -0.8584
  679TIP3    H219225   0.219   5.885   1.347  0.6105 -0.0450 -0.1783
  680TIP3   OH219226   3.257   0.462   7.523 -0.4020  0.0703  0.1949
  680TIP3    H119227   3.345   0.482   7.490 -0.1854  0.8466  1.1665
  680TIP3    H219228   3.260   0.369   7.543  0.9636  0.4679  2.2437
  681TIP3   OH219229   4.395   5.367   7.672 -0.1874 -0.0018 -0.5382
  681TIP3    H119230   4.314   5.333   7.710 -0.3289  0.5069 -0.3825
  681TIP3    H219231   4.459   5.297   7.686  0.5747  1.2633  3.3373
  682TIP3   OH219232   0.719   5.966   1.730  0.1988 -0.3827  0.1125
  682TIP3    H119233   0.693   5.883   1.771  1.1970 -0.7787 -0.0405
  682TIP3    H219234   0.705   6.032   1.799 -0.1080 -0.7464  0.4025
  683TIP3   OH219235   6.449   1.189   0.079  0.4485 -0.4348 -0.5885
  683TIP3    H119236   6.458   1.112   0.136 -1.4672 -1.3267 -1.4174
  683TIP3    H219237   6.420   1.259   0.137 -2.4843 -1.5868 -0.5077
  684TIP3   OH219238   0.690   1.800   1.457 -0.6297 -0.4748  0.0691
  684TIP3    H119239   0.694   1.767   1.547 -0.5699 -0.8230 -0.0611
  684TIP3    H219240   0.719   1.891   1.464  0.7952 -0.9142  0.1831
  685TIP3   OH219241   4.952   5.256   6.126  0.0102  0.3598 -0.1479
  685TIP3    H119242   5.021   5.205   6.168 -0.5664 -0.7935 -0.5579
  685TIP3    H219243   4.911   5.195   6.063 -0.9215  1.2197 -0.4105
  686TIP3   OH219244   1.358   1.807   0.891 -0.3375 -0.1495 -0.0394
  686TIP3    H119245   1.403   1.891   0.878 -1.2718  0.3151 -0.3885
  686TIP3    H219246   1.428   1.744   0.905  0.4049  0.5956 -0.3145
  687TIP3   OH219247   2.367   3.600   1.569  0.2378  0.5809  0.2060
  687TIP3    H119248   2.352   3.618   1.661 -1.1734 -0.2036  0.1638
  687TIP3    H219249   2.292   3.638   1.524 -0.1484 -0.8117 -0.3912
  688TIP3   OH219250   4.012   4.909   7.248  0.2116  0.3681  0.2313
  688TIP3    H119251   3.960   4.960   7.311 -1.3574 -0.3836 -0.3950
  688TIP3    H219252   4.018   4.966   7.171 -1.0567 -0.1185 -0.2602
  689TIP3   OH219253   3.276   5.400   2.384  0.2706 -0.3904 -0.1091
  689TIP3    H119254   3.259   5.445   2.301  0.1484 -0.5837 -0.1896
  689TIP3    H219255   3.261   5.467   2.451 -0.4854 -0.4651 -0.1944
  690TIP3   OH219256   4.432   2.269   7.435 -0.4503  0.5676  0.7576
  690TIP3    H119257   4.479   2.204   7.383  0.0582  2.1969 -0.9000
  690TIP3    H219258   4.347   2.228   7.453 -0.7417  0.0249 -1.5996
  691TIP3   OH219259   1.591   4.575   0.569 -0.6644  0.1325 -0.3599
  691TIP3    H119260   1.590   4.531   0.484 -0.2083  0.4299 -0.5283
  691TIP3    H219261   1.628   4.662   0.550 -1.5310  0.5788 -0.0321
  692TIP3   OH219262   5.683   2.267   1.666  0.1498  1.0352  0.0738
  692TIP3    H119263   5.667   2.248   1.759  0.7823  1.0010  0.1816
  692TIP3    H219264   5.778   2.258   1.656  0.2626  2.3506 -0.2745
  693TIP3   OH219265   0.485   2.214   0.844  0.5041 -0.8528  0.0813
  693TIP3    H119266   0.398   2.183   0.820  0.5308 -0.2139 -0.8973
  693TIP3    H219267   0.533   2.217   0.761  0.1588  2.8394 -0.1438
  694TIP3   OH219268   5.340   6.319   7.367  0.0728 -0.5617  0.0842
  694TIP3    H119269   5.393   6.392   7.399  1.0542 -1.1579 -0.1460
  694TIP3    H219270   5.385   6.290   7.287 -1.2822 -0.3140 -0.7955
  695TIP3   OH219271   2.069   4.939   6.088 -0.1776 -0.4831  0.3520
  695TIP3    H119272   2.022   4.856   6.084  0.0306 -0.7132  1.9203
  695TIP3    H219273   2.136   4.932   6.020  1.2561 -2.5400  1.8362
  696TIP3   OH219274   4.335   3.640   6.128 -0.0498  0.1514 -0.0307
  696TIP3    H119275   4.390   3.595   6.192  2.7117  1.5246 -1.2752
  696TIP3    H219276   4.266   3.577   6.108 -0.7789 -0.5556  3.8208
  697TIP3   OH219277   6.513   1.742   6.337 -0.0987  0.1541  0.2764
  697TIP3    H119278   6.501   1.762   6.244 -0.4817 -0.7600  0.1119
  697TIP3    H219279   6.428   1.761   6.377 -0.5510 -1.2899  0.0708
  698TIP3   OH219280   3.207   3.645   6.546 -0.6911 -0.6785  0.2066
  698TIP3    H119281   3.269   3.573   6.541 -1.6210 -1.5193  0.4349
  698TIP3    H219282   3.121   3.603   6.552 -1.2736  0.4474  0.1347
  699TIP3   OH219283   1.206   4.802   6.815 -0.6821  0.3027  0.0310
  699TIP3    H119284   1.283   4.746   6.810  0.5472  1.8912  0.3481
  699TIP3    H219285   1.134   4.742   6.835  0.4167 -1.2514 -0.5094
  700TIP3   OH219286   3.554   2.214   0.769  0.7351 -0.3465  0.2368
  700TIP3    H119287   3.531   2.237   0.859  0.8364 -1.6672  0.6190
  700TIP3    H219288   3.649   2.227   0.764  0.3576  3.1785 -0.7677
  701TIP3   OH219289   3.179   0.204   6.171 -0.9356  0.3344 -0.4917
  701TIP3    H119290   3.147   0.154   6.246 -1.9442  0.4954 -0.7939
  701TIP3    H219291   3.172   0.295   6.199  0.2966  0.3365 -0.1709
  702TIP3   OH219292   5.336   2.797   1.171  0.3881 -0.0273 -0.3251
  702TIP3    H119293   5.386   2.743   1.231  0.4290 -2.1219 -2.1120
  702TIP3    H219294   5.371   2.775   1.084 -1.7430  0.4879 -1.3869
  703TIP3   OH219295   2.833   2.586   6.949  0.3254  0.6581  0.4460
  703TIP3    H119296   2.911   2.586   6.894 -0.0753  1.1792 -0.1347
  703TIP3    H219297   2.789   2.504   6.929  0.6186  0.4474  0.6404
  704TIP3   OH219298   4.733   4.145   1.048  0.4170  0.0363  0.2022
  704TIP3    H119299   4.702   4.150   1.138  1.3156 -2.1834  0.7081
  704TIP3    H219300   4.828   4.136   1.056  0.3771 -1.8832 -0.8318
  705TIP3   OH219301   0.609   3.399   6.638 -0.0826 -0.4105  1.0731
  705TIP3    H119302   0.647   3.400   6.550  1.1398 -1.4773  1.5519
  705TIP3    H219303   0.514   3.394   6.623 -0.0395  1.4758 -0.1611
  706TIP3   OH219304   5.165   4.072   6.674  0.4941  0.2135 -0.1711
  706TIP3    H119305   5.211   4.146   6.713  1.0453 -0.0134 -0.3906
  706TIP3    H219306   5.149   4.012   6.748 -2.2759  1.6787  0.5523
  707TIP3   OH219307   0.910   4.174   1.312 -0.4687  0.5746 -0.1173
  707TIP3    H119308   0.963   4.145   1.238  0.5974  2.3924 -0.1186
  707TIP3    H219309   0.954   4.252   1.344 -1.9585  0.8976  1.2729
  708TIP3   OH219310   3.174   5.341   1.012  0.1626 -0.0242 -0.7421
  708TIP3    H119311   3.253   5.343   0.959  0.3487  2.0122 -0.4368
  708TIP3    H219312   3.206   5.334   1.102  0.2475  3.5424 -0.3486
  709TIP3   OH219313   1.349   5.731   6.763 -0.2581 -0.2946 -0.5729
  709TIP3    H119314   1.418   5.794   6.743  0.2651 -0.0405  1.7510
  709TIP3    H219315   1.358   5.664   6.696  1.5419  0.2888 -0.9765
  710TIP3   OH219316   1.759   6.228   0.717 -0.3251 -0.2091  0.5680
  710TIP3    H119317   1.841   6.271   0.738 -0.0451 -1.4828  2.4024
  710TIP3    H219318   1.714   6.220   0.802 -2.4362  0.6054 -0.4027
  711TIP3   OH219319   1.520   3.667   7.536 -0.2128 -0.2377  0.2648
  711TIP3    H119320   1.462   3.610   7.587 -2.5940  0.9955 -0.9142
  711TIP3    H219321   1.480   3.671   7.450  0.0917  2.8379  0.1580
  712TIP3   OH219322   4.884   4.878   2.023  0.1673  0.1317  0.0804
  712TIP3    H119323   4.824   4.840   1.959  1.8860  0.5042 -1.8512
  712TIP3    H219324   4.830   4.894   2.100 -1.7604 -1.2971 -0.8984
  713TIP3   OH219325   2.383   1.941   4.982 -0.1090 -0.2089  0.0284
  713TIP3    H119326   2.448   1.952   4.913  0.0809 -1.5943 -0.0522
  713TIP3    H219327   2.331   1.865   4.954 -0.2626 -0.5676  1.2217
  714TIP3   OH219328   6.555   0.237   1.122 -0.8596 -0.8662  0.5067
  714TIP3    H119329   6.647   0.227   1.097 -0.0462 -0.2104  2.9779
  714TIP3    H219330   6.506   0.226   1.040  1.3630 -1.8397 -0.7597
  715TIP3   OH219331   4.241   0.318   7.525 -0.4410  0.2505 -0.1456
  715TIP3    H119332   4.226   0.339   7.617  0.0467 -0.3068  0.0661
  715TIP3    H219333   4.276   0.229   7.526 -1.2676 -0.1005 -0.9318
  716TIP3   OH219334   0.774   2.491   0.881 -1.0541  0.1398 -0.5288
  716TIP3    H119335   0.726   2.459   0.804 -1.6408  0.1765 -0.1868
  716TIP3    H219336   0.864   2.464   0.867 -1.3865 -0.9376 -0.6349
  717TIP3   OH219337   0.759   6.256   0.252  0.0137 -0.1801  0.4590
  717TIP3    H119338   0.682   6.310   0.270  0.1379 -0.3570  1.5672
  717TIP3    H219339   0.777   6.272   0.159 -2.9252 -2.1433 -0.5939
  718TIP3   OH219340   3.083   4.911   1.587  0.0348 -0.5404 -1.0375
  718TIP3    H119341   3.126   4.923   1.502 -1.8738 -0.9870 -2.1309
  718TIP3    H219342   3.016   4.844   1.570 -0.8686 -0.1118  0.6352
  719TIP3   OH219343   3.174   5.517   7.202 -0.0439 -0.1738 -0.5647
  719TIP3    H119344   3.202   5.564   7.280  2.1026 -2.0877 -0.0508
  719TIP3    H219345   3.130   5.439   7.236  0.7871 -0.9557 -1.2209
  720TIP3   OH219346   1.423   4.270   6.880 -0.3273 -0.0701 -0.2898
  720TIP3    H119347   1.390   4.184   6.855 -1.7296 -0.1653  1.6735
  720TIP3    H219348   1.507   4.251   6.923  0.2515 -0.2513 -1.4660
  721TIP3   OH219349   0.598   0.647   1.263 -0.0347 -0.6962 -0.6924
  721TIP3    H119350   0.613   0.559   1.298 -0.2393 -1.1876 -1.7961
  721TIP3    H219351   0.677   0.696   1.285  0.7747 -1.6210 -1.4755
  722TIP3   OH219352   4.182   6.050   0.701  0.2107  0.4666 -0.3844
  722TIP3    H119353   4.196   6.133   0.656  1.2559  0.7510  0.3983
  722TIP3    H219354   4.089   6.030   0.688  0.4464  0.5583 -2.5431
  723TIP3   OH219355   1.614   0.433   6.424  0.5782 -0.9959  0.7165
  723TIP3    H119356   1.536   0.468   6.382  1.3978 -1.5570 -1.3853
  723TIP3    H219357   1.583   0.401   6.509 -1.3626 -0.7742  0.1369
  724TIP3   OH219358   3.896   5.015   6.044 -0.4211 -0.5204  0.0369
  724TIP3    H119359   3.916   5.014   5.951 -0.8595  2.2787 -0.1641
  724TIP3    H219360   3.839   4.939   6.057  1.7352 -2.5132 -1.3851
  725TIP3   OH219361   3.553   0.067   0.665 -0.2900 -0.5827  0.5403
  725TIP3    H119362   3.599  -0.016   0.680 -0.5077 -0.5570  1.4406
  725TIP3    H219363   3.623   0.131   0.655 -0.0385 -1.2160 -2.7057
  726TIP3   OH219364   6.282   5.833   6.909 -0.2121  0.3284 -0.2108
  726TIP3    H119365   6.341   5.825   6.833 -1.5522  1.0884 -1.3869
  726TIP3    H219366   6.200   5.795   6.879 -1.4796  2.7107  0.0123
  727TIP3   OH219367   6.342   2.765   1.434  0.7581  0.4918  0.3609
  727TIP3    H119368   6.256   2.759   1.476 -0.0809  0.4652 -1.2597
  727TIP3    H219369   6.331   2.833   1.367  1.9296  0.2941 -0.0518
  728TIP3   OH219370   2.505   3.328   6.944  0.0784 -0.5493  0.1948
  728TIP3    H119371   2.546   3.410   6.918  1.0504 -1.5664 -1.7234
  728TIP3    H219372   2.495   3.279   6.863 -0.8851 -2.1596  1.2219
  729TIP3   OH219373   0.870   3.492   5.864 -0.3303  0.8227  0.2196
  729TIP3    H119374   0.944   3.494   5.803  0.0989 -0.3668  0.6723
  729TIP3    H219375   0.831   3.579   5.858  0.4248  1.0971 -0.8657
  730TIP3   OH219376   4.811   1.257   0.284  0.4414 -0.1891 -0.2807
  730TIP3    H119377   4.833   1.350   0.281  0.7727 -0.2477  0.2610
  730TIP3    H219378   4.739   1.248   0.222 -0.9396  0.7821  1.1154
  731TIP3   OH219379   2.863   6.159   0.966  0.2285 -0.3821  0.1374
  731TIP3    H119380   2.866   6.254   0.979  1.0267 -0.2505 -0.8424
  731TIP3    H219381   2.897   6.122   1.047  1.1723  0.2290  0.0353
  732TIP3   OH219382   2.609   0.924   5.778  0.0417 -0.5775  0.0795
  732TIP3    H119383   2.530   0.932   5.830 -0.3176 -2.1248 -0.1783
  732TIP3    H219384   2.581   0.880   5.698  1.0822 -0.7833 -0.1885
  733TIP3   OH219385   3.882   5.106   6.463 -0.7097 -0.3830  0.3978
  733TIP3    H119386   3.872   5.146   6.377 -0.4137 -0.3603  0.3731
  733TIP3    H219387   3.793   5.081   6.489 -0.6065 -1.9946 -0.6814
  734TIP3   OH219388   3.854   5.828   6.803  0.4075 -0.3044 -0.3348
  734TIP3    H119389   3.911   5.840   6.879  0.3420 -0.1537 -0.3077
  734TIP3    H219390   3.851   5.734   6.789 -0.3722 -0.4170  0.4628
  735TIP3   OH219391   4.040   5.957   6.640  0.1571  0.0253 -0.3435
  735TIP3    H119392   4.081   5.950   6.554 -0.3609 -1.8852 -0.4883
  735TIP3    H219393   4.113   5.975   6.700  0.9047 -1.0710 -0.8851
  736TIP3   OH219394   3.253   3.828   7.609 -0.2390  0.4014 -0.2583
  736TIP3    H119395   3.252   3.829   7.513 -0.3974  1.4355 -0.2553
  736TIP3    H219396   3.161   3.814   7.634 -0.1134 -0.4612 -0.2493
  737TIP3   OH219397   2.111   5.635   1.009 -0.0342 -0.2169  0.1058
  737TIP3    H119398   2.027   5.667   1.042 -1.7051 -2.1594 -1.9487
  737TIP3    H219399   2.113   5.543   1.034  1.1208 -0.4104 -0.6213
  738TIP3   OH219400   1.259   6.111   6.975 -0.2004 -0.4873  0.3406
  738TIP3    H119401   1.191   6.072   7.031 -0.8533  0.1738  0.0236
  738TIP3    H219402   1.212   6.140   6.897  0.3608  0.4176  0.3244
  739TIP3   OH219403   2.217   1.247   7.340 -0.1666 -0.2046 -0.3946
  739TIP3    H119404   2.147   1.216   7.398 -0.3996 -1.4191 -1.2746
  739TIP3    H219405   2.189   1.335   7.313 -0.3941  0.0883  0.7625
  740TIP3   OH219406   2.506   0.081   6.695 -0.8006 -0.3095 -0.2979
  740TIP3    H119407   2.583   0.128   6.665 -0.5447  0.0505  0.8739
  740TIP3    H219408   2.445   0.085   6.621 -0.1838  0.5045 -0.7741
  741TIP3   OH219409   0.466   0.961   0.692  0.2874  0.5551 -0.2584
  741TIP3    H119410   0.394   0.984   0.634  1.0673 -0.8475 -1.8498
  741TIP3    H219411   0.541   1.011   0.660  0.9638 -0.9564 -1.1307
  742TIP3   OH219412   1.991   0.252   6.977 -0.8365 -0.4710 -0.2074
  742TIP3    H119413   2.068   0.248   6.919  0.3327  1.2592  1.0983
  742TIP3    H219414   1.959   0.342   6.966 -0.7520 -0.2021  1.5781
  743TIP3   OH219415   0.859   3.815   1.735  0.4141  0.2106  0.2464
  743TIP3    H119416   0.851   3.883   1.668 -1.4180 -0.2408 -0.0391
  743TIP3    H219417   0.865   3.863   1.818  1.5933  0.7472 -0.1328
  744TIP3   OH219418   1.039   4.615   6.416  0.6325 -0.0391 -0.0916
  744TIP3    H119419   1.049   4.551   6.486  0.7130  0.2933  0.2069
  744TIP3    H219420   1.088   4.578   6.342  0.8480 -0.2245  0.1431
  745TIP3   OH219421   3.776   1.471   6.023 -0.0152 -0.1943  0.7938
  745TIP3    H119422   3.790   1.463   5.929  0.4392  1.9170  0.6376
  745TIP3    H219423   3.773   1.380   6.054 -0.3891 -0.9452 -1.2573
  746TIP3   OH219424   2.741   2.658   0.337  0.5093  0.0683 -0.2262
  746TIP3    H119425   2.652   2.628   0.355  0.2527  0.6007 -0.6025
  746TIP3    H219426   2.732   2.749   0.311  1.2505  0.3834  0.5382
  747TIP3   OH219427   1.160   2.333   1.681  0.3958  0.0444 -0.0850
  747TIP3    H119428   1.072   2.322   1.647 -0.9318  2.2722  2.2679
  747TIP3    H219429   1.197   2.404   1.629 -0.0512  0.6029  0.3472
  748TIP3   OH219430   3.976   3.075   1.328  0.5528 -0.1102  0.5221
  748TIP3    H119431   3.981   3.067   1.232  0.8024  3.1260  0.1772
  748TIP3    H219432   3.954   2.986   1.357 -0.9003 -0.9369 -2.6050
  749TIP3   OH219433   3.491   5.541   6.054  0.4593  1.5314 -0.4624
  749TIP3    H119434   3.439   5.470   6.017 -0.2284  0.8888  1.5789
  749TIP3    H219435   3.475   5.615   5.997  0.6963  0.2339 -2.2949
  750TIP3   OH219436   4.077   4.982   0.076 -0.5071 -0.9012  0.3428
  750TIP3    H119437   4.100   5.002   0.167 -1.1346 -0.4927  0.4189
  750TIP3    H219438   3.987   4.949   0.081 -0.3579 -1.3865 -0.0738
  751TIP3   OH219439   6.066   5.446   6.953  1.1246  0.8458 -0.3815
  751TIP3    H119440   6.042   5.474   7.041  0.2293 -0.9240 -0.0226
  751TIP3    H219441   6.158   5.421   6.961  0.7128 -0.5338  0.4131
  752TIP3   OH219442   3.185   0.061   1.396  0.4280  0.1762 -0.4480
  752TIP3    H119443   3.168  -0.033   1.407  3.0009 -0.4218 -0.9424
  752TIP3    H219444   3.150   0.101   1.475  0.7392 -1.4198  0.5573
  753TIP3   OH219445   4.165   4.684   0.542 -0.3807  0.2716 -0.0276
  753TIP3    H119446   4.188   4.634   0.620  0.0029  0.0400 -0.2832
  753TIP3    H219447   4.227   4.655   0.475 -1.7481 -0.7450 -0.9013
  754TIP3   OH219448   4.726   3.733   0.797 -0.4744 -0.2153 -1.1820
  754TIP3    H119449   4.717   3.827   0.809 -0.9384 -0.4025  0.1126
  754TIP3    H219450   4.799   3.723   0.736  0.5808  0.9425 -0.1503
  755TIP3   OH219451   5.577   3.348   6.801 -0.3034  0.5619  0.3194
  755TIP3    H119452   5.665   3.345   6.765 -0.2952 -0.5977  0.4013
  755TIP3    H219453   5.581   3.415   6.870  0.1681  1.4339 -0.5276
  756TIP3   OH219454   3.476   4.868   7.008 -0.4218  0.1195 -0.0641
  756TIP3    H119455   3.535   4.833   6.942  0.2959 -0.4108  0.8330
  756TIP3    H219456   3.405   4.803   7.014  0.6161 -0.9699  1.1900
  757TIP3   OH219457   3.097   1.228   1.310  0.2190 -0.0386  0.2913
  757TIP3    H119458   3.155   1.211   1.236  0.8337 -1.4075  1.0484
  757TIP3    H219459   3.113   1.156   1.370 -2.2336 -0.4419  0.5670
  758TIP3   OH219460   0.062   4.218   7.392 -0.3360  0.2801  0.1942
  758TIP3    H119461   0.147   4.262   7.395  0.1797 -0.6360 -0.4853
  758TIP3    H219462  -0.002   4.289   7.385  0.3363  1.0005  1.1118
  759TIP3   OH219463   1.341   1.190   1.691 -0.3236  0.3351  0.0156
  759TIP3    H119464   1.281   1.264   1.696 -2.3279 -1.2778  1.6079
  759TIP3    H219465   1.375   1.179   1.779  1.1456  0.2441 -0.5257
  760TIP3   OH219466   5.522   3.130   6.403 -0.0786  0.1182 -0.0616
  760TIP3    H119467   5.605   3.119   6.451  0.1357 -1.2037 -0.6843
  760TIP3    H219468   5.547   3.172   6.321  0.2156 -1.5304 -0.8534
  761TIP3   OH219469   0.550   2.667   7.537  0.3798 -0.0081  0.2723
  761TIP3    H119470   0.570   2.581   7.572 -0.2110 -0.9578 -1.6228
  761TIP3    H219471   0.458   2.661   7.509 -0.0264  1.5993  1.1113
  762TIP3   OH219472   2.229   0.330   5.976 -0.2353  0.4271 -0.0977
  762TIP3    H119473   2.138   0.322   6.006 -0.1183  0.2237  0.2058
  762TIP3    H219474   2.253   0.242   5.947 -0.7787  0.8860 -2.0650
  763TIP3   OH219475   4.910   0.245   0.888  0.3087  0.5251 -0.2010
  763TIP3    H119476   4.874   0.170   0.935 -0.0532  1.7260  1.5584
  763TIP3    H219477   4.833   0.286   0.847  0.7398 -1.0544 -2.7821
  764TIP3   OH219478   6.106   1.846   7.047 -0.1801 -0.0563  0.2886
  764TIP3    H119479   6.113   1.876   6.956 -2.7645  1.3236  0.4510
  764TIP3    H219480   6.184   1.881   7.090  0.4961  0.2396 -1.1259
  765TIP3   OH219481   5.145   4.533   6.713 -0.2310  0.0591  0.3284
  765TIP3    H119482   5.208   4.545   6.784 -0.5990  0.3609  0.6014
  765TIP3    H219483   5.191   4.566   6.636 -0.1918  0.6179  0.5905
  766TIP3   OH219484   0.182   2.307   1.735  0.2072 -0.4301 -0.1923
  766TIP3    H119485   0.213   2.289   1.646 -1.9957  0.0863 -1.1507
  766TIP3    H219486   0.128   2.230   1.756 -0.0219 -0.1335  0.3089
  767TIP3   OH219487   4.613   5.952   6.764  0.4075  0.9369  0.3270
  767TIP3    H119488   4.700   5.912   6.769  0.7382  1.7771  2.1167
  767TIP3    H219489   4.593   5.954   6.670  1.5059 -0.9362  0.0052
  768TIP3   OH219490   0.086   4.799   6.459 -0.0262  0.1277  0.0953
  768TIP3    H119491   0.114   4.864   6.395 -1.1929 -0.7819 -1.4401
  768TIP3    H219492   0.031   4.739   6.408 -0.3895 -1.0680  1.8200
  769TIP3   OH219493   1.880   2.547   6.788  0.0422  0.3523  0.1757
  769TIP3    H119494   1.906   2.459   6.762  0.0347 -0.1913  1.8915
  769TIP3    H219495   1.945   2.574   6.852  0.1779  1.7076 -0.4956
  770TIP3   OH219496   2.366   0.862   1.775 -0.4733  0.2562 -0.4394
  770TIP3    H119497   2.393   0.914   1.850  0.1516 -0.3989 -0.1906
  770TIP3    H219498   2.380   0.771   1.803  0.1455  0.0137 -1.4793
  771TIP3   OH219499   0.148   5.848   5.819 -0.1497  0.0675  0.0758
  771TIP3    H119500   0.098   5.852   5.738 -3.3312  0.7924  1.8619
  771TIP3    H219501   0.085   5.814   5.883  2.0803 -0.0915  2.3156
  772TIP3   OH219502   4.304   2.753   1.526 -0.2552  0.1470 -0.3095
  772TIP3    H119503   4.320   2.670   1.481  0.7063  0.8983 -1.4005
  772TIP3    H219504   4.387   2.772   1.571  0.1693  1.3968 -1.5612
  773TIP3   OH219505   2.884   1.722   5.741  0.1375 -0.4406 -0.3698
  773TIP3    H119506   2.908   1.656   5.675 -2.1377  0.3137 -2.0676
  773TIP3    H219507   2.903   1.806   5.699  0.8943  0.0485  0.9038
  774TIP3   OH219508   1.838   3.402   1.289  0.0811 -0.6975  0.1830
  774TIP3    H119509   1.811   3.399   1.381 -1.0925 -2.2842 -0.1620
  774TIP3    H219510   1.873   3.314   1.272 -3.8691 -2.1216 -1.9789
  775TIP3   OH219511   0.604   6.523   0.974  0.0513 -0.6247  0.7429
  775TIP3    H119512   0.510   6.536   0.966 -0.3123 -3.3412 -0.8073
  775TIP3    H219513   0.617   6.429   0.958  3.2158 -0.0131 -1.3168
  776TIP3   OH219514   3.710   4.797   7.559 -0.4224  0.3584  0.7801
  776TIP3    H119515   3.734   4.884   7.527 -0.6050  0.2027  0.2117
  776TIP3    H219516   3.633   4.813   7.614  1.7023  1.0660  3.8292
  777TIP3   OH219517   1.679   1.398   5.518 -0.2630  0.1049 -0.0356
  777TIP3    H119518   1.745   1.443   5.464  0.0868 -1.8315 -1.3058
  777TIP3    H219519   1.730   1.349   5.582 -0.5321 -0.4372 -0.2367
  778TIP3   OH219520   1.068   5.571   6.256  0.9294  0.1106 -0.2509
  778TIP3    H119521   0.995   5.573   6.194  0.8921 -0.6852 -0.2466
  778TIP3    H219522   1.034   5.616   6.334  0.1030 -1.0383  0.0847
  779TIP3   OH219523   2.159   5.932   7.033  0.0808  0.1672  0.3949
  779TIP3    H119524   2.195   5.881   6.961  2.7534 -0.1112  1.8115
  779TIP3    H219525   2.200   6.018   7.024 -0.2238  0.3874  1.0747
  780TIP3   OH219526   4.511   5.610   2.058 -0.1187  0.1862  0.9185
  780TIP3    H119527   4.571   5.652   2.120 -0.1192 -1.9684  2.4730
  780TIP3    H219528   4.431   5.594   2.108 -1.5785  1.7960 -0.7554
  781TIP3   OH219529   2.427   3.240   0.260 -0.2095 -0.1066  0.9246
  781TIP3    H119530   2.352   3.297   0.241  0.0684 -0.2213 -0.6103
  781TIP3    H219531   2.390   3.171   0.317 -1.9321 -1.5615 -1.7152
  782TIP3   OH219532   4.045   3.512   0.892  0.3064  0.4309 -0.5694
  782TIP3    H119533   4.107   3.469   0.834 -1.5111 -0.5866 -1.8619
  782TIP3    H219534   3.994   3.570   0.835 -0.2099  0.9376  0.3756
  783TIP3   OH219535   1.211   4.032   1.858  0.3675 -0.6815 -0.1557
  783TIP3    H119536   1.170   3.947   1.843 -0.8072 -0.1607  0.0461
  783TIP3    H219537   1.142   4.086   1.897  1.4819 -0.0289  0.9785
  784TIP3   OH219538   6.167   0.390   0.542  0.0035 -0.0158  0.2319
  784TIP3    H119539   6.121   0.431   0.616 -0.0265 -0.8142  0.6747
  784TIP3    H219540   6.096   0.352   0.489  0.0977 -0.7465  0.6080
  785TIP3   OH219541   0.390   6.318   1.037 -0.6662  0.1842 -0.2115
  785TIP3    H119542   0.346   6.401   1.019 -1.7165 -0.4821 -0.9117
  785TIP3    H219543   0.355   6.258   0.970 -2.0648 -1.5287  1.8987
  786TIP3   OH219544   5.349   2.877   0.306 -0.5612 -0.9007 -0.2951
  786TIP3    H119545   5.417   2.821   0.344 -1.2555 -1.4503  0.1488
  786TIP3    H219546   5.291   2.817   0.260 -1.4480 -0.5804  0.3786
  787TIP3   OH219547   6.255   1.750   6.404 -0.3551 -0.0691  0.5605
  787TIP3    H119548   6.173   1.797   6.413 -0.1205  0.0041  2.8000
  787TIP3    H219549   6.230   1.657   6.406 -0.4617 -0.0469  0.2765
  788TIP3   OH219550   1.216   2.025   3.054 -0.0318 -0.1476  0.7924
  788TIP3    H119551   1.282   2.033   3.124 -0.1808 -0.6461  0.9947
  788TIP3    H219552   1.232   1.938   3.016 -1.8596 -1.1635  2.1772
  789TIP3   OH219553   3.480   3.615   0.802  0.1378  0.0120 -0.2905
  789TIP3    H119554   3.400   3.667   0.791 -0.5194 -0.9455 -0.1301
  789TIP3    H219555   3.547   3.664   0.754 -0.9011  0.0136 -1.8299
  790TIP3   OH219556   3.652   1.696   6.119  0.1915  0.0321 -0.0595
  790TIP3    H119557   3.659   1.756   6.044 -0.6445  0.4739  0.2037
  790TIP3    H219558   3.707   1.622   6.096  1.4834  1.0217 -0.2807
  791TIP3   OH219559   0.192   5.463   1.173  0.3514  0.6299  0.1332
  791TIP3    H119560   0.280   5.424   1.179  0.7395  1.4504 -0.0896
  791TIP3    H219561   0.133   5.390   1.190  1.0807  0.0923  0.4535
  792TIP3   OH219562   4.448   4.926   0.227  0.1351  0.7149  0.5601
  792TIP3    H119563   4.409   4.998   0.276 -1.9430  0.2472 -0.2721
  792TIP3    H219564   4.461   4.857   0.292 -3.1116 -0.1138  0.5402
  793TIP3   OH219565   3.244   4.747   6.970 -0.0612  0.2975 -0.5362
  793TIP3    H119566   3.152   4.721   6.983 -0.3140 -0.1480 -2.8022
  793TIP3    H219567   3.285   4.669   6.932  0.7256  1.1734 -1.5359
  794TIP3   OH219568   1.345   1.707   1.343  0.0958  0.0863 -0.5251
  794TIP3    H119569   1.305   1.787   1.307 -0.0082  0.3329  0.1181
  794TIP3    H219570   1.340   1.719   1.437  0.4675 -0.4999 -0.4287
  795TIP3   OH219571   6.554   2.259   7.410  0.0974  0.0906 -0.2642
  795TIP3    H119572   6.633   2.236   7.360 -1.0449  0.5258 -2.3802
  795TIP3    H219573   6.571   2.226   7.498  1.7221 -1.8062 -1.2129
  796TIP3   OH219574   1.869   2.642   1.083  0.5134  0.3125 -0.7985
  796TIP3    H119575   1.924   2.691   1.143 -1.0547  0.2794  0.7467
  796TIP3    H219576   1.796   2.700   1.063 -0.9123 -0.9603  0.3616
  797TIP3   OH219577   2.517   5.104   1.178  0.2217 -0.1243 -0.4796
  797TIP3    H119578   2.547   5.084   1.266 -0.5899  3.0192  0.6437
  797TIP3    H219579   2.597   5.104   1.125  0.7554 -1.7944  0.2773
  798TIP3   OH219580   5.386   3.430   0.974  0.1733  0.2900  0.1749
  798TIP3    H119581   5.453   3.408   1.038  1.2331  1.3211 -0.5515
  798TIP3    H219582   5.419   3.508   0.929 -2.7187  2.5759  1.6391
  799TIP3   OH219583   6.635   4.127   2.035 -0.4431 -0.3870  1.0594
  799TIP3    H119584   6.601   4.212   2.063  0.5815  0.3351  0.2345
  799TIP3    H219585   6.649   4.138   1.940 -3.0430 -2.4550  0.3318
  800TIP3   OH219586   2.772   1.549   6.696 -0.0307 -0.0631 -0.9188
  800TIP3    H119587   2.814   1.556   6.611 -0.9052  1.5415 -1.2627
  800TIP3    H219588   2.746   1.457   6.702 -0.9850  0.0185 -2.9182
  801TIP3   OH219589   3.477   2.963   6.059  0.1650 -0.3894 -0.5914
  801TIP3    H119590   3.434   3.002   5.983  0.1249 -1.2049 -1.0035
  801TIP3    H219591   3.509   3.037   6.110 -1.5119  0.2517 -0.4015
  802TIP3   OH219592   2.540   2.293   6.099  0.1177 -0.3551  0.4046
  802TIP3    H119593   2.545   2.309   6.193  0.9001  1.4555  0.1017
  802TIP3    H219594   2.589   2.211   6.086  2.4631  0.7914  1.3095
  803TIP3   OH219595   4.457   4.761   6.601  0.5237 -0.1980 -0.3389
  803TIP3    H119596   4.538   4.721   6.632  0.7414  0.2679 -0.3026
  803TIP3    H219597   4.416   4.694   6.547  1.2774 -0.1847 -0.9380
  804TIP3   OH219598   0.426   3.221   1.718 -0.0574  0.0654  0.6432
  804TIP3    H119599   0.382   3.199   1.636  0.0308  1.1945  0.2752
  804TIP3    H219600   0.517   3.193   1.704  0.5416  2.3984 -0.6068
  805TIP3   OH219601   6.333   6.023   7.109  0.1968  0.0896  0.6612
  805TIP3    H119602   6.251   6.065   7.081  0.4179 -0.2010 -0.4698
  805TIP3    H219603   6.353   5.961   7.039  0.9294 -0.4678  1.3552
  806TIP3   OH219604   4.169   2.165   7.660 -0.1857  0.0791  0.0929
  806TIP3    H119605   4.095   2.111   7.689 -0.5417  1.0871  1.0999
  806TIP3    H219606   4.154   2.251   7.699  2.5046 -0.1777  2.0209
  807TIP3   OH219607   0.462   2.927   7.580  0.4332  0.5550 -0.9338
  807TIP3    H119608   0.469   2.952   7.672  1.7437  1.6893 -1.3080
  807TIP3    H219609   0.491   2.836   7.578  0.6009  0.5876 -0.2638
  808TIP3   OH219610   6.237   1.719   0.769 -0.0131  0.1322  0.2170
  808TIP3    H119611   6.260   1.663   0.695 -0.6688 -0.5429  0.5078
  808TIP3    H219612   6.161   1.769   0.738  0.1252  0.3321  0.2027
  809TIP3   OH219613   1.560   3.708   5.571 -0.2891  0.0424  0.2428
  809TIP3    H119614   1.477   3.666   5.593 -0.2320 -0.1001  0.1895
  809TIP3    H219615   1.535   3.787   5.523 -0.4128  0.3413  0.7934
  810TIP3   OH219616   4.099   2.147   1.235  0.0748 -0.3612  0.3025
  810TIP3    H119617   4.112   2.097   1.315  1.7038  1.0240  0.9593
  810TIP3    H219618   4.032   2.211   1.258  1.3250  0.7573  0.9554
  811TIP3   OH219619   1.395   0.615   6.077  0.2609 -0.4997 -0.1805
  811TIP3    H119620   1.391   0.606   6.172  1.8557  0.0148 -0.0358
  811TIP3    H219621   1.489   0.619   6.057 -0.0528  0.5841 -1.6524
  812TIP3   OH219622   1.876   4.257   1.242 -0.1963 -0.7353  0.5380
  812TIP3    H119623   1.950   4.196   1.237  0.4186  0.0610 -0.5422
  812TIP3    H219624   1.914   4.342   1.218 -1.2588 -0.1219  0.9703
  813TIP3   OH219625   5.663   4.658   6.191 -0.4060  0.3519 -0.1268
  813TIP3    H119626   5.721   4.606   6.135  1.0993  0.9892  0.7667
  813TIP3    H219627   5.583   4.607   6.197  0.6822 -1.4386 -0.0122
  814TIP3   OH219628   1.104   1.479   6.538  0.6405 -0.3810 -0.1508
  814TIP3    H119629   1.198   1.493   6.553  0.8597 -1.0235 -0.8485
  814TIP3    H219630   1.080   1.410   6.600  0.4683  0.2269  0.4796
  815TIP3   OH219631   0.085   4.448   2.454 -0.4426 -0.1065  0.1111
  815TIP3    H119632   0.108   4.356   2.442 -1.7213 -0.4576  0.1509
  815TIP3    H219633   0.144   4.496   2.396  0.8585 -0.8668  0.7775
  816TIP3   OH219634   6.460   4.083   6.723  0.0132  0.4383 -0.2135
  816TIP3    H119635   6.445   4.163   6.774  0.8638  0.5600 -0.1388
  816TIP3    H219636   6.395   4.086   6.653 -0.1596  1.0420 -0.0316
  817TIP3   OH219637   2.194   0.650   6.970  0.4760  0.2959 -0.3990
  817TIP3    H119638   2.170   0.592   6.898  1.8048  0.0404 -0.6584
  817TIP3    H219639   2.154   0.610   7.048  1.4554 -1.0637 -0.5487
  818TIP3   OH219640   2.082   0.744   6.622  0.0932 -0.0854 -0.0026
  818TIP3    H119641   2.087   0.653   6.653 -4.8258 -1.5597 -2.4445
  818TIP3    H219642   2.135   0.745   6.542  1.5590 -0.2485  0.9353
  819TIP3   OH219643   1.424   0.911   6.528  0.4249 -0.3274 -0.3475
  819TIP3    H119644   1.357   0.950   6.584 -0.2797 -1.4300 -0.3923
  819TIP3    H219645   1.385   0.911   6.440 -0.5299 -3.0505 -0.0208
  820TIP3   OH219646   5.859   4.698   0.215 -0.2984 -0.2619 -0.3413
  820TIP3    H119647   5.833   4.680   0.124  0.0919 -0.8024 -0.3535
  820TIP3    H219648   5.910   4.778   0.210  0.4376 -0.7394 -0.7343
  821TIP3   OH219649   1.849   5.071   0.706 -0.2214 -0.4370  0.1445
  821TIP3    H119650   1.865   5.093   0.798 -0.9546 -2.8389  0.9206
  821TIP3    H219651   1.924   5.108   0.660  0.5667  0.1636  1.8076
  822TIP3   OH219652   1.652   2.975   2.081 -0.1324 -0.5270 -0.2810
  822TIP3    H119653   1.739   2.938   2.097 -0.0354  0.1752  1.0143
  822TIP3    H219654   1.595   2.898   2.071  0.8300 -1.0174 -2.6608
  823TIP3   OH219655   3.223   6.405   7.599 -0.6250  0.3165 -0.0602
  823TIP3    H119656   3.154   6.419   7.534 -1.8963  0.7461  1.3140
  823TIP3    H219657   3.184   6.437   7.681  1.0743  0.1812  0.8277
  824TIP3   OH219658   5.472   0.205   0.904  0.3748  0.7941 -0.1711
  824TIP3    H119659   5.447   0.114   0.922  0.8033  0.3418 -1.6718
  824TIP3    H219660   5.389   0.248   0.881  0.3799  0.3351 -1.1075
  825TIP3   OH219661   2.653   5.975   7.099  0.3837 -0.0518 -0.1459
  825TIP3    H119662   2.636   5.997   7.007  1.5218  3.9903  0.4498
  825TIP3    H219663   2.748   5.978   7.107  0.2543  0.7891  1.3697
  826TIP3   OH219664   0.271   4.845   7.621  0.4943 -0.1829 -0.0254
  826TIP3    H119665   0.279   4.749   7.622  0.4199 -0.1917 -0.2087
  826TIP3    H219666   0.242   4.865   7.532 -0.2920 -0.0541  0.2504
  827TIP3   OH219667   2.379   2.628   6.055  0.3860 -0.6039 -0.2484
  827TIP3    H119668   2.383   2.718   6.023  0.1971 -1.2146 -2.1280
  827TIP3    H219669   2.311   2.630   6.123  1.0576  0.8324  0.4231
  828TIP3   OH219670   4.734   1.692   0.455 -0.2434  0.5207  0.2378
  828TIP3    H119671   4.734   1.644   0.372  1.2626 -1.1470  1.1193
  828TIP3    H219672   4.827   1.709   0.473 -0.4331 -0.0454  2.0304
  829TIP3   OH219673   1.840   0.859   1.985  0.0967 -0.0201  0.1290
  829TIP3    H119674   1.758   0.899   2.015 -0.1853  1.0093 -1.8658
  829TIP3    H219675   1.816   0.767   1.971  0.2027 -0.5309  2.6856
  830TIP3   OH219676   2.584   0.459   5.709  0.6951 -0.0631  0.3312
  830TIP3    H119677   2.631   0.386   5.668 -0.1228 -1.1706  1.2917
  830TIP3    H219678   2.642   0.487   5.780  0.3076 -0.8954  1.0016
  831TIP3   OH219679   2.104   2.079   7.320  0.4331  0.0245 -0.5677
  831TIP3    H119680   2.010   2.071   7.336  0.2125  1.1964 -1.1593
  831TIP3    H219681   2.139   1.991   7.335 -0.9983 -0.8040 -1.8711
  832TIP3   OH219682   2.955   3.845   6.247 -0.3597 -0.2172  0.5619
  832TIP3    H119683   2.922   3.918   6.193 -1.1432 -0.3046  0.9032
  832TIP3    H219684   3.020   3.885   6.305 -0.3867  0.1059  0.3703
  833TIP3   OH219685   5.275   6.016   0.269 -0.2934 -0.2198 -0.5382
  833TIP3    H119686   5.195   6.060   0.296 -0.5221 -1.6454  1.3313
  833TIP3    H219687   5.246   5.945   0.212 -0.3364 -0.5013 -0.1696
  834TIP3   OH219688   2.187   3.746   1.440 -0.3592  0.4458  0.0061
  834TIP3    H119689   2.232   3.826   1.465 -2.5288  2.1153 -1.0661
  834TIP3    H219690   2.121   3.774   1.376 -2.3453 -1.9324  0.8373
  835TIP3   OH219691   6.513   3.947   1.310  0.6500  0.5293 -0.0680
  835TIP3    H119692   6.472   3.918   1.228 -0.6215  1.8824  0.0285
  835TIP3    H219693   6.521   4.042   1.300  0.2971  0.7492  1.4215
  836TIP3   OH219694   0.654   5.667   0.911  0.2280  0.3690 -0.2097
  836TIP3    H119695   0.702   5.654   0.993 -1.9970  0.9240  1.2512
  836TIP3    H219696   0.590   5.597   0.909 -1.0373  1.5031 -0.4746
  837TIP3   OH219697   1.896   2.335   5.673 -0.2291 -0.6152  0.6134
  837TIP3    H119698   1.980   2.327   5.629 -0.2675 -0.6382  0.5444
  837TIP3    H219699   1.896   2.424   5.710 -0.8428 -0.0041 -0.7656
  838TIP3   OH219700   5.833   1.654   6.329  0.0288 -0.0632 -0.6696
  838TIP3    H119701   5.738   1.667   6.327  0.3476  3.5715  0.9374
  838TIP3    H219702   5.852   1.635   6.421  0.9546  0.4260 -0.7547
  839TIP3   OH219703   0.322   0.907   6.223 -0.1864 -0.3057 -0.0889
  839TIP3    H119704   0.307   0.860   6.305  1.4719  1.0662  1.0812
  839TIP3    H219705   0.381   0.851   6.173 -0.4201 -0.7055  0.0763
  840TIP3   OH219706   4.706   0.803   6.415 -1.0595 -0.1084  0.4656
  840TIP3    H119707   4.654   0.847   6.482 -3.3444  0.9112 -1.7729
  840TIP3    H219708   4.657   0.724   6.395 -0.9963  0.1188 -0.6721
  841TIP3   OH219709   5.296   3.087   1.538  0.2650 -0.3444  0.4721
  841TIP3    H119710   5.365   3.061   1.599 -0.2995 -1.8800  0.5119
  841TIP3    H219711   5.338   3.149   1.478  0.9356  0.8655  2.1332
  842TIP3   OH219712   5.197   2.075   7.594 -0.1804  0.5777  0.2119
  842TIP3    H119713   5.126   2.024   7.632 -0.2197 -0.6942 -1.4944
  842TIP3    H219714   5.217   2.032   7.511  0.3396  2.8566 -0.9316
  843TIP3   OH219715   4.561   0.690   7.109  0.0640  0.3035  0.1759
  843TIP3    H119716   4.636   0.637   7.083  0.0159  0.6663 -0.7339
  843TIP3    H219717   4.487   0.650   7.065 -0.2495  0.1057  0.8628
  844TIP3   OH219718   4.931   1.967   7.696 -0.9667  0.1388  0.5491
  844TIP3    H119719   4.927   2.059   7.671  0.2220 -0.2244 -1.1515
  844TIP3    H219720   5.000   1.962   7.762  3.5800 -0.2087 -3.6081
  845TIP3   OH219721   1.936   3.473   1.970  0.3402 -0.2158 -0.0200
  845TIP3    H119722   1.984   3.556   1.975  1.3651 -0.7860 -0.0219
  845TIP3    H219723   1.849   3.497   1.939  0.5242  0.8927  0.2783
  846TIP3   OH219724   1.676   1.716   0.808 -0.6264  0.0452 -0.4771
  846TIP3    H119725   1.631   1.798   0.829  0.8474  0.4102  1.4444
  846TIP3    H219726   1.756   1.743   0.763 -1.1236 -0.4837 -1.7307
  847TIP3   OH219727   0.116   2.243   6.270 -0.0179  0.1183 -0.7656
  847TIP3    H119728   0.209   2.229   6.288 -0.2440 -1.2616 -0.6068
  847TIP3    H219729   0.090   2.170   6.214 -1.7886 -1.5875  2.0156
  848TIP3   OH219730   2.849   0.684   1.187 -0.7690 -0.0493  0.5842
  848TIP3    H119731   2.835   0.589   1.181  1.8341 -0.7642  3.3919
  848TIP3    H219732   2.776   0.716   1.239 -3.1402  0.1123 -2.5216
  849TIP3   OH219733   2.040   4.421   0.913 -0.5320  0.2016  0.3017
  849TIP3    H119734   2.074   4.331   0.908 -0.4841  0.2307  0.0524
  849TIP3    H219735   2.083   4.466   0.840 -1.5131  0.1084 -0.3518
  850TIP3   OH219736   2.801   4.042   0.925  0.7595 -0.0008 -0.6017
  850TIP3    H119737   2.807   4.135   0.947 -0.1239  0.7010 -2.9403
  850TIP3    H219738   2.850   4.034   0.844 -1.5689 -0.8907 -2.0380
  851TIP3   OH219739   4.608   0.006   1.802  0.2824 -0.2850  0.2300
  851TIP3    H119740   4.519  -0.008   1.834 -0.3614  1.0892 -0.8562
  851TIP3    H219741   4.663  -0.005   1.879 -0.9630  0.2178  1.2304
  852TIP3   OH219742   6.575   4.424   7.279 -0.1226  0.4246  0.4313
  852TIP3    H119743   6.660   4.419   7.236  1.2508 -1.9543  3.0635
  852TIP3    H219744   6.578   4.505   7.328 -0.4045  1.5292 -1.2810
  853TIP3   OH219745   5.001   5.731   1.299 -0.3214  0.0285  0.4129
  853TIP3    H119746   5.082   5.730   1.248  0.7269 -0.6517  2.0271
  853TIP3    H219747   4.934   5.755   1.235  0.4650 -3.4414 -2.0337
  854TIP3   OH219748   1.772   5.046   0.366  0.1649 -0.3388  0.4100
  854TIP3    H119749   1.826   5.117   0.401  0.2128 -0.0199 -0.2926
  854TIP3    H219750   1.794   5.042   0.273 -0.4348 -0.7364  0.2740
  855TIP3   OH219751   1.405   1.170   6.361 -0.4318  0.4839 -0.1914
  855TIP3    H119752   1.416   1.108   6.433  0.7707  1.3710  0.4239
  855TIP3    H219753   1.493   1.205   6.346 -0.7446  0.6978 -1.7607
  856TIP3   OH219754   2.122   1.594   2.115 -0.1806  0.3384 -0.0329
  856TIP3    H119755   2.045   1.542   2.095  0.8278 -1.0723 -0.3865
  856TIP3    H219756   2.121   1.665   2.050 -0.3072 -0.6157 -1.0932
  857TIP3   OH219757   2.715   2.630   7.578  0.7810 -0.6625 -0.2019
  857TIP3    H119758   2.642   2.573   7.601  2.2913 -1.9565  1.7335
  857TIP3    H219759   2.674   2.711   7.548 -1.4993 -0.7632  2.2282
  858TIP3   OH219760   2.334   1.153   1.013 -0.7891  0.6242  0.0354
  858TIP3    H119761   2.353   1.176   0.922 -0.0222  0.7481  0.2214
  858TIP3    H219762   2.413   1.175   1.061  0.0044 -2.2377  0.2566
  859TIP3   OH219763   1.668   1.759   5.139  0.1498 -0.0911 -0.9547
  859TIP3    H119764   1.641   1.845   5.171  1.7196 -0.1446  0.7390
  859TIP3    H219765   1.763   1.767   5.128  0.1305 -1.2272 -2.0723
  860TIP3   OH219766   2.362   2.759   0.108  0.4198 -0.4651 -0.4180
  860TIP3    H119767   2.428   2.824   0.082 -0.9099  0.3401 -1.9519
  860TIP3    H219768   2.413   2.681   0.132  2.0101  0.7901  0.5224
  861TIP3   OH219769   2.406   2.289   1.721  0.1863  0.0082 -0.5000
  861TIP3    H119770   2.407   2.223   1.791  0.0404 -1.5619 -1.9231
  861TIP3    H219771   2.497   2.294   1.692  0.5264  1.7282  0.7110
  862TIP3   OH219772   4.577   0.575   6.373  0.0862  0.3091 -0.1726
  862TIP3    H119773   4.516   0.555   6.302  0.8462 -1.0802 -0.4723
  862TIP3    H219774   4.623   0.492   6.390  2.5994  1.5134 -0.6544
  863TIP3   OH219775   4.018   3.211   5.200 -0.5019 -0.6106 -0.1183
  863TIP3    H119776   4.111   3.233   5.204 -0.1977 -1.6296 -1.3539
  863TIP3    H219777   3.977   3.287   5.158 -0.1165 -0.4934 -0.2822
  864TIP3   OH219778   0.348   6.475   1.643  0.4508 -0.6716  0.2868
  864TIP3    H119779   0.305   6.480   1.728  1.9411 -0.3164  1.0606
  864TIP3    H219780   0.296   6.413   1.593 -0.7844 -0.4435  1.2575
  865TIP3   OH219781   2.311   6.266   0.271  0.0803  0.0236 -0.4669
  865TIP3    H119782   2.287   6.181   0.234 -0.7761  0.3786 -0.7787
  865TIP3    H219783   2.276   6.264   0.360  1.6628 -0.6254  0.1610
  866TIP3   OH219784   5.484   2.623   6.593 -0.6307  0.0065  0.1782
  866TIP3    H119785   5.524   2.598   6.509 -1.5508 -2.3237  0.3647
  866TIP3    H219786   5.557   2.660   6.643 -0.0099  1.2730 -1.5403
  867TIP3   OH219787   0.777   6.321   2.333 -0.7657  0.7155 -0.8586
  867TIP3    H119788   0.723   6.294   2.407  0.0085  1.4905  0.0183
  867TIP3    H219789   0.766   6.251   2.269 -0.6220 -0.5220  0.4141
  868TIP3   OH219790   4.668   2.096   6.995  0.4393 -0.0662  0.4350
  868TIP3    H119791   4.617   2.050   6.927  0.4228  1.4433 -0.6168
  868TIP3    H219792   4.755   2.105   6.957  0.7837 -0.2840  1.1481
  869TIP3   OH219793   1.200   4.068   1.576  0.1330  0.4384  0.4028
  869TIP3    H119794   1.176   3.979   1.551 -1.1320  0.7583  0.4363
  869TIP3    H219795   1.135   4.094   1.641  0.5152  1.3720  0.4354
  870TIP3   OH219796   2.730   4.548   0.385  0.4778  0.8463 -0.3990
  870TIP3    H119797   2.805   4.537   0.443 -0.2704  0.0703  0.4621
  870TIP3    H219798   2.760   4.517   0.300  1.1721  0.6564 -0.0872
  871TIP3   OH219799   0.427   2.157   2.689 -0.0593  0.2247 -0.0420
  871TIP3    H119800   0.490   2.085   2.677  0.0341  0.2708  0.1726
  871TIP3    H219801   0.481   2.232   2.713 -0.1434  0.4035 -0.4133
  872TIP3   OH219802   5.479   1.281   1.956  0.1459  0.0622  0.2109
  872TIP3    H119803   5.510   1.212   2.014 -1.0585 -0.6341  0.0697
  872TIP3    H219804   5.434   1.234   1.885 -3.5640  0.9865  1.7473
  873TIP3   OH219805   6.609   2.909   1.215 -0.1253  0.4964  0.3489
  873TIP3    H119806   6.594   2.832   1.161  0.9019 -0.0663  0.8251
  873TIP3    H219807   6.695   2.941   1.188 -0.2408  1.0652  0.6365
  874TIP3   OH219808   0.808   6.245   7.707 -0.0171  0.5922 -0.3121
  874TIP3    H119809   0.824   6.247   7.612 -0.2717 -0.3638 -0.3854
  874TIP3    H219810   0.717   6.216   7.714  1.0870 -3.3159  0.2721
  875TIP3   OH219811   5.065   1.653   6.530  0.1335 -0.1121 -0.3811
  875TIP3    H119812   5.070   1.558   6.518  0.4605  0.0392 -1.6060
  875TIP3    H219813   4.980   1.677   6.492 -0.7010 -0.0954  1.4095
  876TIP3   OH219814   2.733   2.114   0.665  0.0664 -0.6767  0.1577
  876TIP3    H119815   2.668   2.046   0.650  0.4208 -1.3798  1.6246
  876TIP3    H219816   2.782   2.120   0.583 -0.0524 -2.0994 -0.0414
  877TIP3   OH219817   4.344   5.459   1.415 -0.3239  0.3940  0.2816
  877TIP3    H119818   4.306   5.536   1.457 -0.1818  1.0611 -0.7670
  877TIP3    H219819   4.412   5.494   1.357  0.7584 -0.6461  0.8778
  878TIP3   OH219820   4.505   1.214   1.273  0.7920  0.3653 -0.0470
  878TIP3    H119821   4.433   1.246   1.326  0.4991 -2.0338  1.1276
  878TIP3    H219822   4.498   1.263   1.191 -0.4310  2.1723  1.0631
  879TIP3   OH219823   4.169   2.423   6.524 -0.0174 -0.2622 -0.2986
  879TIP3    H119824   4.092   2.368   6.540 -1.6845  2.1857  0.7311
  879TIP3    H219825   4.222   2.413   6.602 -1.1675  0.8477  0.6611
  880TIP3   OH219826   0.342   2.785   1.319 -0.6639 -0.0902 -0.0190
  880TIP3    H119827   0.378   2.873   1.313  0.8066 -0.5192  1.6759
  880TIP3    H219828   0.404   2.730   1.271  0.9245 -0.7868  2.6389
  881TIP3   OH219829   1.876   0.724   7.010  0.3766  0.0262  0.3456
  881TIP3    H119830   1.819   0.683   6.945 -0.4625  0.6813  0.6298
  881TIP3    H219831   1.929   0.786   6.960 -0.2685  0.5316  0.2780
  882TIP3   OH219832   5.648   3.423   6.458  0.1747  0.3513 -0.4727
  882TIP3    H119833   5.714   3.415   6.526 -0.1847  1.2816 -0.0036
  882TIP3    H219834   5.575   3.369   6.489  0.2032  0.3819 -0.3504
  883TIP3   OH219835   2.753   1.884   1.034  0.0703 -0.5252  0.1763
  883TIP3    H119836   2.688   1.867   0.966  0.0938  1.1582 -0.3149
  883TIP3    H219837   2.712   1.949   1.091  1.0647  0.1013  0.2093
  884TIP3   OH219838   0.626   0.389   0.651 -0.2126  0.1583  0.5612
  884TIP3    H119839   0.705   0.408   0.703 -0.2317 -2.6197  1.7845
  884TIP3    H219840   0.603   0.300   0.675 -1.8663 -0.2807 -2.2424
  885TIP3   OH219841   4.728   1.650   6.692 -0.1021 -0.3247  0.3051
  885TIP3    H119842   4.730   1.579   6.628 -0.2406 -0.5261  0.5185
  885TIP3    H219843   4.768   1.612   6.770 -1.5977 -0.6915  0.9369
  886TIP3   OH219844   4.422   0.898   6.980 -0.0181  0.2991  0.2264
  886TIP3    H119845   4.376   0.918   7.061  1.2387  0.0087  1.0569
  886TIP3    H219846   4.466   0.814   6.997  0.6297  0.4497 -0.5844
  887TIP3   OH219847   5.304   1.164   1.754  0.1152 -0.4814 -0.6506
  887TIP3    H119848   5.235   1.168   1.820 -0.0969 -1.0746 -0.8307
  887TIP3    H219849   5.257   1.161   1.670  0.3810  1.4885 -0.9348
  888TIP3   OH219850   3.140   1.849   6.958 -0.0925  0.3008 -0.5890
  888TIP3    H119851   3.195   1.870   6.883  0.0306  0.5889 -0.4199
  888TIP3    H219852   3.079   1.782   6.925  0.2404  0.1109 -0.8231
  889TIP3   OH219853   4.952   6.507   6.395  0.4436 -0.1072  0.3727
  889TIP3    H119854   4.957   6.594   6.353  0.8350  0.5567  1.7396
  889TIP3    H219855   4.939   6.447   6.322 -1.2257  1.2202 -0.5008
  890TIP3   OH219856   3.442   2.262   7.732  0.1673 -0.0345  0.0757
  890TIP3    H119857   3.394   2.213   7.665 -0.4825 -0.1213  0.5884
  890TIP3    H219858   3.512   2.306   7.685  0.0221 -0.4984 -0.5798
  891TIP3   OH219859   5.866   6.276   0.761  0.6026  0.8336  0.0801
  891TIP3    H119860   5.900   6.192   0.793 -1.6098 -0.2208 -0.1817
  891TIP3    H219861   5.928   6.341   0.795  1.1136 -0.6826  2.2580
  892TIP3   OH219862   0.688   3.625   7.325  0.1701  0.2136  0.1483
  892TIP3    H119863   0.663   3.700   7.271  0.0821  0.0438 -0.0485
  892TIP3    H219864   0.641   3.551   7.287  1.1632 -0.1567 -0.3934
  893TIP3   OH219865   5.626   2.399   7.278 -0.0894  0.2825  0.1811
  893TIP3    H119866   5.592   2.410   7.189 -0.2835  2.3865  0.4747
  893TIP3    H219867   5.567   2.335   7.318 -1.1209  0.6906 -0.6368
  894TIP3   OH219868   3.991   6.620   0.772  0.3671  0.6093  0.0122
  894TIP3    H119869   3.998   6.562   0.696  1.6037  0.7540 -0.0201
  894TIP3    H219870   4.075   6.667   0.773 -0.4966  2.2180  0.1874
  895TIP3   OH219871   1.739   2.866   5.508 -0.1882 -0.9200 -0.4332
  895TIP3    H119872   1.663   2.924   5.516 -0.2514 -1.0219 -0.2656
  895TIP3    H219873   1.701   2.780   5.487 -0.3765 -1.6081  2.2734
  896TIP3   OH219874   2.477   1.878   6.770 -0.5542 -0.1231  0.1604
  896TIP3    H119875   2.501   1.801   6.822  3.2760  1.3014  0.9061
  896TIP3    H219876   2.482   1.848   6.679 -0.9869 -1.1774  0.4725
  897TIP3   OH219877   3.633   2.773   7.618 -0.7063 -0.1081 -0.8864
  897TIP3    H119878   3.617   2.733   7.703  1.0980 -0.9505 -0.8875
  897TIP3    H219879   3.621   2.866   7.632 -2.5339 -0.3988 -0.2585
  898TIP3   OH219880   5.190   3.500   1.158 -0.3151 -0.3090  0.6711
  898TIP3    H119881   5.112   3.471   1.112 -0.2291  2.2990 -1.3507
  898TIP3    H219882   5.262   3.478   1.098  0.0982  0.6046  0.8224
  899TIP3   OH219883   4.920   1.649   2.324  0.3831  0.1526 -0.2635
  899TIP3    H119884   4.996   1.629   2.379  0.9034  1.8440 -0.2890
  899TIP3    H219885   4.946   1.728   2.276 -2.0634  2.0015  1.1678
  900TIP3   OH219886   5.914   3.635   1.219  0.3698 -0.0639 -0.1831
  900TIP3    H119887   5.871   3.720   1.210  1.0530  0.2919 -0.1290
  900TIP3    H219888   5.883   3.602   1.304 -0.9094 -0.4635 -0.7845
  901TIP3   OH219889   1.377   5.383   0.614  0.5589  0.1965 -0.0269
  901TIP3    H119890   1.308   5.318   0.626  1.4514 -0.4336  2.2074
  901TIP3    H219891   1.458   5.334   0.631  1.5496  1.0314 -2.1011
  902TIP3   OH219892   1.197   1.866   1.176  0.0281  0.0817 -0.3604
  902TIP3    H119893   1.254   1.901   1.107  0.4143 -0.4481 -0.3211
  902TIP3    H219894   1.161   1.785   1.139 -0.2091  0.0899 -0.1503
  903TIP3   OH219895   3.571   2.584   1.352 -0.2469  0.7237  0.3516
  903TIP3    H119896   3.540   2.515   1.294 -1.6395  0.9574  0.7721
  903TIP3    H219897   3.525   2.569   1.435 -0.4050  2.0032  0.5234
  904TIP3   OH219898   3.144   1.566   5.887 -0.1448 -0.4357 -0.4630
  904TIP3    H119899   3.230   1.601   5.913 -0.1709 -0.8351  0.1784
  904TIP3    H219900   3.146   1.566   5.791 -0.4194  2.0122 -0.5389
  905TIP3   OH219901   0.911   4.329   6.417  0.5714 -0.0112 -0.0448
  905TIP3    H119902   0.912   4.234   6.415 -3.0274 -0.1800 -0.7140
  905TIP3    H219903   0.963   4.356   6.341 -0.5912 -1.5653 -1.4551
  906TIP3   OH219904   3.674   5.942   0.639 -0.4759  0.4560  0.0173
  906TIP3    H119905   3.658   5.895   0.721 -0.7124  0.6976  0.1082
  906TIP3    H219906   3.651   5.878   0.571  1.5526 -0.4219  0.1030
  907TIP3   OH219907   5.300   1.303   7.593  0.2954  0.2732  0.0881
  907TIP3    H119908   5.259   1.268   7.672  2.0600  1.0210  1.4114
  907TIP3    H219909   5.274   1.242   7.523 -0.1536 -1.2312  1.4984
  908TIP3   OH219910   1.264   1.717   5.963 -0.3717 -0.9472 -0.0340
  908TIP3    H119911   1.267   1.707   5.868 -0.1529 -0.5611 -0.0693
  908TIP3    H219912   1.211   1.643   5.993  1.4717 -2.4304 -0.2462
  909TIP3   OH219913   6.049   4.827   1.089  0.4978 -0.2672 -0.2170
  909TIP3    H119914   5.979   4.850   1.150  2.4601 -0.6193  2.2949
  909TIP3    H219915   6.003   4.799   1.009 -2.1607  0.6139  0.9177
  910TIP3   OH219916   1.248   0.490   0.422  0.8207  0.1153 -1.0315
  910TIP3    H119917   1.184   0.558   0.401 -1.3408 -1.0357  1.2554
  910TIP3    H219918   1.319   0.536   0.467 -0.2382  0.9861 -0.2033
  911TIP3   OH219919   6.400   2.078   0.111 -0.1931 -0.4207 -0.2758
  911TIP3    H119920   6.312   2.111   0.094 -0.4891 -2.0208 -2.2506
  911TIP3    H219921   6.398   1.987   0.082  1.8643 -0.7842  0.5280
  912TIP3   OH219922   1.316   2.673   6.593 -0.3750 -0.2026  0.7926
  912TIP3    H119923   1.397   2.723   6.584  0.0199 -1.1631 -1.6454
  912TIP3    H219924   1.315   2.646   6.685  1.9964 -0.0747  0.9117
  913TIP3   OH219925   3.861   0.369   0.496 -0.5210 -0.2930  0.1050
  913TIP3    H119926   3.802   0.403   0.563  0.9985 -0.1701  1.4277
  913TIP3    H219927   3.819   0.288   0.467 -0.8940 -0.6933  1.6699
  914TIP3   OH219928   4.546   6.227   6.835  0.2376 -0.3471 -0.3057
  914TIP3    H119929   4.570   6.146   6.789 -1.2533 -1.1126  0.2081
  914TIP3    H219930   4.525   6.199   6.924 -1.5086  0.3903 -0.4452
  915TIP3   OH219931   5.132   0.617   1.200  0.3876  0.1853  0.2650
  915TIP3    H119932   5.062   0.681   1.216 -0.7484 -1.0498  0.3823
  915TIP3    H219933   5.093   0.552   1.142  0.9378 -1.3367  1.5238
  916TIP3   OH219934   6.400   2.816   6.134 -0.7136 -0.8285 -0.0577
  916TIP3    H119935   6.365   2.904   6.146 -0.1552 -0.6151  0.0270
  916TIP3    H219936   6.428   2.814   6.042 -3.1675 -1.8074 -0.8894
  917TIP3   OH219937   2.516   4.669   0.520  0.4756  0.4491  0.0542
  917TIP3    H119938   2.551   4.587   0.487 -1.1272 -0.6238  0.9010
  917TIP3    H219939   2.422   4.664   0.504  0.0576  1.2018  1.9625
  918TIP3   OH219940   6.290   2.201   7.558 -0.0256 -0.0732  0.0583
  918TIP3    H119941   6.285   2.237   7.469  0.2649 -1.3861 -0.5019
  918TIP3    H219942   6.374   2.231   7.591 -0.5408  1.2231  0.2694
  919TIP3   OH219943   3.418   0.929   7.224 -0.4873  0.2982 -0.5782
  919TIP3    H119944   3.450   0.858   7.168  2.3801 -0.9728  2.3648
  919TIP3    H219945   3.459   1.008   7.188 -0.4071 -0.1392 -1.4805
  920TIP3   OH219946   1.915   0.714   2.419  0.0458  0.6752 -0.3787
  920TIP3    H119947   2.005   0.734   2.443 -0.0566  1.7432 -0.8154
  920TIP3    H219948   1.865   0.789   2.451 -0.9680 -0.6764  1.4029
  921TIP3   OH219949   3.582   4.570   1.320  0.6621  0.6625  0.5078
  921TIP3    H119950   3.543   4.503   1.375 -1.6064  2.5962  1.4592
  921TIP3    H219951   3.522   4.577   1.245  1.2143  1.1736  0.1056
  922TIP3   OH219952   0.006   2.713   0.790  0.1751 -0.5467  0.8052
  922TIP3    H119953   0.043   2.795   0.824 -2.0217  0.7959  0.1776
  922TIP3    H219954  -0.089   2.725   0.797 -0.4609 -0.8113 -3.9834
  923TIP3   OH219955   4.665   2.386   2.049 -0.1206  0.0449  0.1712
  923TIP3    H119956   4.653   2.439   2.128 -1.0842 -1.0707  0.8081
  923TIP3    H219957   4.576   2.375   2.014  0.2890  0.5217 -1.0914
  924TIP3   OH219958   3.909   3.811   6.425 -0.5307 -0.6041 -0.3096
  924TIP3    H119959   3.937   3.868   6.353 -0.3408 -0.0510  0.1837
  924TIP3    H219960   3.814   3.817   6.424 -0.7472 -2.7952 -2.2368
  925TIP3   OH219961   4.927   0.342   6.776  0.6258  0.4474 -0.4964
  925TIP3    H119962   5.002   0.295   6.741  0.6840 -2.6548  3.1575
  925TIP3    H219963   4.853   0.316   6.722  1.2360 -1.4032 -0.4811
  926TIP3   OH219964   5.662   6.612   1.232  0.1093 -0.0023 -0.2196
  926TIP3    H119965   5.651   6.547   1.164 -1.6139 -0.6535  0.6156
  926TIP3    H219966   5.739   6.583   1.282  0.4077 -0.3951 -0.9039
  927TIP3   OH219967   1.220   6.065   6.669 -0.1156  0.6059 -0.1297
  927TIP3    H119968   1.254   6.012   6.598  0.1836  0.6070  0.0123
  927TIP3    H219969   1.138   6.102   6.635 -0.3649 -0.0087 -0.1940
  928TIP3   OH219970   2.218   5.701   0.785 -0.8875  0.1196  0.1152
  928TIP3    H119971   2.143   5.727   0.731 -1.7174 -1.2471  0.5360
  928TIP3    H219972   2.181   5.686   0.872 -0.1642 -0.7185  0.2937
  929TIP3   OH219973   6.207   2.355   0.206  0.2212 -0.4005 -0.1598
  929TIP3    H119974   6.144   2.346   0.277 -0.0063  0.4725 -0.2343
  929TIP3    H219975   6.174   2.297   0.137 -0.4651 -0.0151 -0.1669
  930TIP3   OH219976   0.492   4.546   0.887  0.5396  0.0187 -0.2773
  930TIP3    H119977   0.576   4.530   0.929  0.3156 -0.6054 -0.0570
  930TIP3    H219978   0.505   4.626   0.837  1.5888 -0.6354 -1.0981
  931TIP3   OH219979   4.924   2.067   5.846 -0.4520 -0.1599 -0.3477
  931TIP3    H119980   5.003   2.055   5.899 -0.1592  1.4454 -0.3673
  931TIP3    H219981   4.950   2.039   5.758 -0.4796 -1.3755  0.0144
  932TIP3   OH219982   3.023   3.621   5.649  0.2027 -0.3586 -0.2083
  932TIP3    H119983   3.024   3.608   5.554 -1.2130  1.2896 -0.5143
  932TIP3    H219984   3.011   3.716   5.659 -0.0032 -0.5554  1.6071
  933TIP3   OH219985   5.370   1.676   6.959 -0.1329 -0.3578 -0.2968
  933TIP3    H119986   5.329   1.761   6.943 -0.0720 -0.1296  0.6921
  933TIP3    H219987   5.313   1.613   6.915  0.6975  0.3258 -2.4324
  934TIP3   OH219988   5.865   4.013   6.343  0.5589  0.0645 -0.4878
  934TIP3    H119989   5.896   3.941   6.289 -2.1968 -2.1029  0.5452
  934TIP3    H219990   5.820   4.071   6.281 -1.7097 -1.8821 -0.8201
  935TIP3   OH219991   3.789   6.210   7.558  0.2472 -0.2385 -0.5721
  935TIP3    H119992   3.712   6.266   7.562  1.3667  1.4033 -0.6269
  935TIP3    H219993   3.797   6.174   7.646 -0.1645  0.1911 -0.3511
  936TIP3   OH219994   2.872   2.799   6.126 -0.1023  0.5264  0.6622
  936TIP3    H119995   2.957   2.763   6.100 -0.0294 -1.0425  2.7704
  936TIP3    H219996   2.894   2.872   6.183 -0.1224 -0.1832  1.6032
  937TIP3   OH219997   1.732   2.169   2.850 -0.1033  0.2284 -0.9466
  937TIP3    H119998   1.800   2.138   2.790  1.2252  3.7177 -1.4872
  937TIP3    H219999   1.778   2.180   2.934 -0.4473  0.9542 -0.8529
  938TIP3   OH220000   4.081   2.616   1.205  0.1121 -0.3204  0.1586
  938TIP3    H120001   4.114   2.567   1.280 -0.2742  0.1010  0.6122
  938TIP3    H220002   4.055   2.701   1.242  0.2647  0.0215 -0.5155
  939TIP3   OH220003   2.568   3.884   0.869  0.2591  0.1481 -0.2173
  939TIP3    H120004   2.633   3.952   0.888 -0.3296  0.7235 -0.2224
  939TIP3    H220005   2.594   3.849   0.784  0.0069  1.0569 -0.6812
  940TIP3   OH220006   1.423   4.187   5.664 -0.7069 -0.1195  0.1586
  940TIP3    H120007   1.410   4.238   5.744  0.1630  0.0985  0.1680
  940TIP3    H220008   1.358   4.222   5.602 -3.6062 -2.3717  1.6677
  941TIP3   OH220009   5.764   2.414   0.273 -0.0241 -0.2839 -0.0589
  941TIP3    H120010   5.853   2.412   0.308 -0.0802  0.2096  0.1143
  941TIP3    H220011   5.708   2.431   0.349 -0.1118  1.2254 -0.4290
  942TIP3   OH220012   3.681   0.038   0.114 -0.8171  0.0093 -0.1657
  942TIP3    H120013   3.734   0.065   0.038 -1.1546 -0.1439 -0.4579
  942TIP3    H220014   3.602   0.000   0.076 -0.6898 -0.6972  0.2501
  943TIP3   OH220015   1.342   5.231   7.553  0.1281 -0.0948 -0.3592
  943TIP3    H120016   1.383   5.158   7.507 -0.7351 -0.3609 -0.7222
  943TIP3    H220017   1.343   5.205   7.645  2.0607  0.5333 -0.1644
  944TIP3   OH220018   2.943   2.249   7.611  0.4655  0.1556  0.3882
  944TIP3    H120019   2.940   2.167   7.561  1.5154  0.6832 -0.6022
  944TIP3    H220020   2.916   2.316   7.548  1.0695  0.7421  0.7434
  945TIP3   OH220021   2.581   5.664   0.917 -0.2311  0.0542 -0.2700
  945TIP3    H120022   2.674   5.653   0.900 -0.1032 -0.9775  0.9445
  945TIP3    H220023   2.538   5.607   0.854 -0.0766  0.8483 -1.1115
  946TIP3   OH220024   6.488   2.959   0.613  0.0488 -0.3514 -0.3197
  946TIP3    H120025   6.571   2.965   0.660 -0.2457 -2.6370  0.6327
  946TIP3    H220026   6.434   2.901   0.667 -1.6277 -0.1451 -1.6834
  947TIP3   OH220027   4.628   4.123   6.251 -0.4255  0.2644  0.1891
  947TIP3    H120028   4.554   4.096   6.307  0.0443 -1.9832 -0.1503
  947TIP3    H220029   4.616   4.072   6.170  0.0462  1.8990 -0.9482
  948TIP3   OH220030   2.920   5.202   0.486 -0.6594 -0.6634  0.7114
  948TIP3    H120031   2.934   5.151   0.407  1.9459 -0.0771  0.6898
  948TIP3    H220032   2.888   5.139   0.550 -1.5517 -1.4143 -0.4384
  949TIP3   OH220033   4.746   0.050   1.130 -0.3772  0.1311  0.5149
  949TIP3    H120034   4.752   0.061   1.225  3.1026  2.0792  0.2141
  949TIP3    H220035   4.772  -0.041   1.115 -0.1685  0.0397  1.3747
  950TIP3   OH220036   5.788   3.738   0.928 -0.5210 -0.0261  0.3043
  950TIP3    H120037   5.779   3.761   1.020  1.3237 -1.0476  0.7953
  950TIP3    H220038   5.868   3.783   0.900 -1.5183  0.9862 -1.0711
  951TIP3   OH220039   6.138   4.811   6.871  0.4547  0.0554  0.2409
  951TIP3    H120040   6.096   4.873   6.812 -0.8912 -0.6132  0.4582
  951TIP3    H220041   6.178   4.745   6.814 -0.4370 -0.3337  0.0596
  952TIP3   OH220042   5.829   0.995   1.225 -0.4337 -0.2146 -0.2356
  952TIP3    H120043   5.775   1.069   1.252  0.1736  1.8966 -4.1291
  952TIP3    H220044   5.910   1.006   1.275 -1.4719 -0.1967  1.5578
  953TIP3   OH220045   2.685   3.939   6.368  0.0501 -0.3949  0.3514
  953TIP3    H120046   2.607   3.909   6.322 -0.6992 -1.6761  2.2957
  953TIP3    H220047   2.737   3.860   6.382  2.1691  0.5283 -1.5624
  954TIP3   OH220048   2.579   3.058   6.382 -0.5061 -0.4124 -0.0232
  954TIP3    H120049   2.499   3.011   6.405 -1.2078  1.1371  0.9417
  954TIP3    H220050   2.646   3.022   6.440 -0.8733 -0.6872  0.2319
  955TIP3   OH220051   6.362   1.036   1.359  0.6833  0.0404 -0.3147
  955TIP3    H120052   6.447   1.075   1.378  1.8972 -2.3889 -0.2971
  955TIP3    H220053   6.330   1.004   1.443  0.5756 -0.5178 -0.5583
  956TIP3   OH220054   0.558   3.149   5.985  0.0962 -0.0585  0.3984
  956TIP3    H120055   0.475   3.136   6.029  0.0402 -2.9501 -0.3475
  956TIP3    H220056   0.535   3.158   5.892  0.5036  1.0385  0.3986
  957TIP3   OH220057   5.039   2.399   7.202 -0.1286 -0.0495 -0.4627
  957TIP3    H120058   5.025   2.324   7.260 -3.6310  0.4572 -0.4386
  957TIP3    H220059   5.018   2.366   7.114  0.4549  0.3760 -0.7693
  958TIP3   OH220060   4.575   0.050   7.238  0.5008  0.3309  0.6263
  958TIP3    H120061   4.589   0.074   7.330 -1.5825  2.9368  0.3807
  958TIP3    H220062   4.579   0.133   7.191  1.6143 -0.9452 -1.7193
  959TIP3   OH220063   3.084   3.326   5.982 -0.1817  0.1383 -0.1124
  959TIP3    H120064   3.036   3.376   6.049 -0.4670  0.4899 -0.5763
  959TIP3    H220065   3.093   3.387   5.909  2.0699  0.5190  0.4013
  960TIP3   OH220066   2.820   3.429   0.196  0.0544  0.4879 -0.2276
  960TIP3    H120067   2.866   3.354   0.234 -2.2479 -1.1754 -0.5638
  960TIP3    H220068   2.821   3.413   0.102  0.2742  1.3438 -0.3799
  961TIP3   OH220069   3.399   2.869   7.392  0.1044  0.4501  0.0224
  961TIP3    H120070   3.411   2.912   7.477  0.1136 -0.4989  0.5174
  961TIP3    H220071   3.445   2.924   7.330 -0.0462  1.2530  0.6091
  962TIP3   OH220072   2.795   4.796   2.383  0.1657 -0.2791 -0.1913
  962TIP3    H120073   2.714   4.846   2.393  0.8409  0.7914  0.0968
  962TIP3    H220074   2.827   4.818   2.296  0.5296 -0.0936 -0.0167
  963TIP3   OH220075   2.899   2.504   5.734  0.1690 -0.0345 -0.1559
  963TIP3    H120076   2.862   2.560   5.666  0.0773 -0.9677 -0.8973
  963TIP3    H220077   2.839   2.513   5.808 -0.4149  0.0463 -0.6327
  964TIP3   OH220078   3.167   4.905   1.844  0.0050  0.5741  0.0515
  964TIP3    H120079   3.258   4.930   1.825 -0.2377  1.8689  0.5052
  964TIP3    H220080   3.117   4.937   1.769  0.0231 -1.1004 -0.7367
  965TIP3   OH220081   1.678   1.409   1.575  0.5600  0.8864 -0.1507
  965TIP3    H120082   1.714   1.343   1.633  0.5175  0.4317 -0.6370
  965TIP3    H220083   1.747   1.476   1.569  1.5900 -0.2552 -1.5437
  966TIP3   OH220084   2.208   1.972   5.606  1.0242 -0.2179  0.0944
  966TIP3    H120085   2.218   2.022   5.687  0.8045  0.4169 -0.2626
  966TIP3    H220086   2.155   2.028   5.550  0.7683 -0.8568 -0.3164
  967TIP3   OH220087   6.000   4.291   0.661  0.1908  0.6482 -0.1059
  967TIP3    H120088   6.050   4.215   0.631 -0.6752  0.1731 -0.3729
  967TIP3    H220089   5.967   4.265   0.748  1.7759  1.6001  0.8335
  968TIP3   OH220090   5.427   0.781   7.719 -0.2065  0.6781  0.3042
  968TIP3    H120091   5.408   0.721   7.791  0.0589  0.3355  0.0934
  968TIP3    H220092   5.467   0.857   7.761  2.4559 -0.6115  0.3247
  969TIP3   OH220093   6.515   4.726   0.252 -0.1271 -0.0071  0.0066
  969TIP3    H120094   6.524   4.738   0.157 -0.5288 -0.4222 -0.0886
  969TIP3    H220095   6.536   4.633   0.267  0.4543  0.1775  0.3984
  970TIP3   OH220096   4.258   5.001   6.905  0.2802  0.4185 -0.6661
  970TIP3    H120097   4.215   4.919   6.881 -1.0920  1.3321 -1.4344
  970TIP3    H220098   4.338   5.002   6.851 -0.1148 -0.0278 -1.2763
  971TIP3   OH220099   5.610   2.164   0.396 -0.2648  0.0777 -0.0734
  971TIP3    H120100   5.694   2.165   0.351 -0.3970  0.1192 -0.3230
  971TIP3    H220101   5.620   2.097   0.464 -0.4641 -0.8638 -0.9541
  972TIP3   OH220102   5.955   4.489   6.981 -0.4005  0.5283 -0.6342
  972TIP3    H120103   6.042   4.465   7.012 -0.3330  1.2156 -0.2728
  972TIP3    H220104   5.960   4.482   6.886 -0.7256 -2.0068 -0.5371
  973TIP3   OH220105   2.789   2.928   7.554  0.0760 -0.5495  0.2422
  973TIP3    H120106   2.840   2.973   7.622  0.5516 -2.4130  1.1831
  973TIP3    H220107   2.704   2.972   7.556  0.8626  1.0721  0.2713
  974TIP3   OH220108   5.179   3.302   6.855  0.0919 -0.2466  0.0350
  974TIP3    H120109   5.170   3.207   6.860 -0.8863 -0.0959  1.9368
  974TIP3    H220110   5.267   3.316   6.819  0.4902 -1.8578  0.2951
  975TIP3   OH220111   3.202   6.182   0.856  0.4302 -0.1065 -0.8618
  975TIP3    H120112   3.135   6.237   0.814 -0.0786 -0.8038 -0.9745
  975TIP3    H220113   3.278   6.240   0.864 -0.6739  1.2218  0.7435
  976TIP3   OH220114   0.756   0.056   6.051 -0.2051  0.0631  0.3553
  976TIP3    H120115   0.828   0.020   6.103 -0.6734 -2.5566 -0.6361
  976TIP3    H220116   0.795   0.077   5.966 -0.4692 -0.9804 -0.0473
  977TIP3   OH220117   1.132   5.790   6.923  0.2032 -0.3045 -0.0551
  977TIP3    H120118   1.069   5.842   6.873  1.3487  0.7269 -0.4628
  977TIP3    H220119   1.209   5.785   6.867  0.0305 -2.7527 -0.1661
  978TIP3   OH220120   0.326   1.719   7.216 -0.5890 -0.5477 -0.0232
  978TIP3    H120121   0.291   1.687   7.299  0.5040 -0.4389  0.5123
  978TIP3    H220122   0.257   1.703   7.152 -2.4619  1.5618  1.3144
  979TIP3   OH220123   0.336   0.547   0.318  0.2816 -0.2984  0.2807
  979TIP3    H120124   0.396   0.566   0.246 -1.8855  0.5110 -1.4263
  979TIP3    H220125   0.328   0.630   0.365 -1.4521  0.3707 -1.0991
  980TIP3   OH220126   4.277   5.791   7.755 -0.1376 -0.4159 -0.2811
  980TIP3    H120127   4.306   5.825   7.670  1.7112 -1.2460 -0.0496
  980TIP3    H220128   4.207   5.730   7.734  0.3905 -0.7141 -1.2370
  981TIP3   OH220129   0.253   0.296   7.614 -0.1866  0.1888  0.1905
  981TIP3    H120130   0.297   0.272   7.695 -0.0483 -0.6406 -0.1222
  981TIP3    H220131   0.274   0.226   7.553 -0.7692  0.5050 -0.3936
  982TIP3   OH220132   3.431   0.563   7.257  0.8928 -0.0881 -0.1014
  982TIP3    H120133   3.442   0.614   7.176  0.9475  0.6549  0.3604
  982TIP3    H220134   3.515   0.572   7.302  0.9477 -0.7113 -0.0721
  983TIP3   OH220135   1.919   6.158   1.868 -0.6472  0.2140  0.3144
  983TIP3    H120136   1.886   6.197   1.787 -1.9398 -0.3218  0.5541
  983TIP3    H220137   1.840   6.126   1.912 -0.1350  1.7066  2.4315
  984TIP3   OH220138   0.235   5.848   6.140  0.2804  0.2072 -0.0009
  984TIP3    H120139   0.281   5.771   6.174  0.5520  0.5719  0.4703
  984TIP3    H220140   0.154   5.813   6.102  0.8270 -0.4098 -0.6158
  985TIP3   OH220141   3.304   0.646   6.235 -0.2608  0.3501  0.5637
  985TIP3    H120142   3.262   0.731   6.247 -0.5271  0.4638 -1.0484
  985TIP3    H220143   3.235   0.589   6.203  0.4675  0.1953 -0.8158
  986TIP3   OH220144   5.678   0.109   0.184  0.1337 -0.5210  0.2159
  986TIP3    H120145   5.693   0.181   0.246  1.1534 -0.0962 -0.5045
  986TIP3    H220146   5.761   0.061   0.183  1.0695  0.9213 -2.6444
  987TIP3   OH220147   5.860   2.679   1.148  0.3507  0.1099  0.0374
  987TIP3    H120148   5.816   2.601   1.115 -0.9826  1.7673 -2.4706
  987TIP3    H220149   5.837   2.748   1.085  1.6598  2.4790  1.9646
  988TIP3   OH220150   1.668   5.509   6.691 -0.2862  0.3413  0.9727
  988TIP3    H120151   1.750   5.481   6.732  0.0974  2.1397  1.5146
  988TIP3    H220152   1.663   5.603   6.708 -2.6281  0.2452  1.2344
  989TIP3   OH220153   0.340   4.057   7.050  0.5734  0.1971 -0.2630
  989TIP3    H120154   0.349   4.101   7.134  1.6659 -1.0374  0.2934
  989TIP3    H220155   0.382   4.115   6.987 -1.1425  1.6242 -0.1818
  990TIP3   OH220156   5.766   2.693   6.433 -0.1835 -0.0455 -0.2261
  990TIP3    H120157   5.711   2.630   6.386  1.6801 -0.3745 -2.1114
  990TIP3    H220158   5.812   2.641   6.499 -0.8386 -0.0658  0.2315
  991TIP3   OH220159   2.591   0.249   0.286 -0.1489  0.2795  0.0286
  991TIP3    H120160   2.575   0.321   0.224  1.7984  0.0030 -0.8871
  991TIP3    H220161   2.676   0.271   0.325  0.7964 -1.8002 -0.7370
  992TIP3   OH220162   2.545   0.548   1.162 -0.0297  0.1313 -0.1026
  992TIP3    H120163   2.574   0.489   1.093  0.1568 -0.2597  0.3008
  992TIP3    H220164   2.512   0.625   1.116  0.7480  0.1769 -0.6095
  993TIP3   OH220165   2.111   5.178   5.846 -0.0050  0.4774  0.0517
  993TIP3    H120166   2.189   5.152   5.895  0.1812  1.1373  0.1193
  993TIP3    H220167   2.078   5.255   5.893  0.1265  1.0723 -0.7878
  994TIP3   OH220168   2.710   2.158   1.118 -0.0616 -0.1664  0.3399
  994TIP3    H120169   2.783   2.186   1.063 -0.8936  1.3300 -0.0604
  994TIP3    H220170   2.634   2.204   1.082 -0.8258 -0.0117  2.0720
  995TIP3   OH220171   1.925   2.918   6.711 -0.3866 -0.3847 -0.2653
  995TIP3    H120172   2.005   2.929   6.763  0.1774 -0.0580 -1.1842
  995TIP3    H220173   1.929   2.988   6.646 -2.2142  0.6468  0.6410
  996TIP3   OH220174   2.728   5.950   1.310 -0.1455  0.5190 -0.7108
  996TIP3    H120175   2.777   6.030   1.289 -0.2352  0.6939 -0.2563
  996TIP3    H220176   2.679   5.972   1.389  1.2599 -0.5629  0.5197
  997TIP3   OH220177   5.095   3.195   1.225  0.0837 -0.3109 -0.1393
  997TIP3    H120178   5.167   3.182   1.164  1.2494 -1.1780  1.3487
  997TIP3    H220179   5.118   3.142   1.302 -1.1938  0.8988  1.1538
  998TIP3   OH220180   2.237   0.603   6.158 -0.2535 -0.1421 -0.0650
  998TIP3    H120181   2.216   0.694   6.139 -0.7535 -0.0933  0.6704
  998TIP3    H220182   2.221   0.557   6.076  1.4405  0.6380 -0.8799
  999TIP3   OH220183   1.930   3.632   1.542 -0.5101 -0.2525 -0.1593
  999TIP3    H120184   2.020   3.598   1.549 -0.3623  0.4669  3.0208
  999TIP3    H220185   1.875   3.557   1.567 -0.6123  0.0609  0.5552
 1000TIP3   OH220186   1.470   4.205   2.082  0.4865 -0.1194  0.6075
 1000TIP3    H120187   1.527   4.159   2.144 -0.6471 -1.2934  0.8183
 1000TIP3    H220188   1.385   4.209   2.126 -0.0253  0.1351 -0.3833
 1001TIP3   OH220189   4.881   1.637   5.577 -0.1365  0.0841  0.1834
 1001TIP3    H120190   4.865   1.543   5.571 -1.6003  0.3731 -1.0419
 1001TIP3    H220191   4.965   1.650   5.533 -0.9155 -0.4311 -1.5325
 1002TIP3   OH220192   2.859   2.453   7.428  0.1483  0.1785  0.1864
 1002TIP3    H120193   2.906   2.506   7.363 -0.5683  1.2382  0.5155
 1002TIP3    H220194   2.820   2.517   7.487 -1.0783 -0.7084  0.3641
 1003TIP3   OH220195   3.808   4.353   1.434  0.4689  0.7187 -0.2950
 1003TIP3    H120196   3.835   4.441   1.409  2.2434  0.0459 -0.9636
 1003TIP3    H220197   3.839   4.343   1.525 -0.4760  1.0521  0.0731
 1004TIP3   OH220198   5.407   2.256   1.699  0.0680 -0.1735 -0.1687
 1004TIP3    H120199   5.501   2.257   1.683  0.8649 -3.4643  2.9629
 1004TIP3    H220200   5.389   2.337   1.747  1.1638  0.6473 -1.0935
 1005TIP3   OH220201   5.852   2.130   2.295 -0.2017  0.5717  0.1110
 1005TIP3    H120202   5.849   2.091   2.207 -1.5651  0.4837  0.1719
 1005TIP3    H220203   5.896   2.214   2.282  2.1759 -0.6356 -0.1439
 1006TIP3   OH220204   1.641   6.399   7.217 -0.4329  0.0064  0.3672
 1006TIP3    H120205   1.569   6.369   7.163  1.7443  1.2517 -3.6342
 1006TIP3    H220206   1.709   6.333   7.206  0.2458  0.5185  1.2882
 1007TIP3   OH220207   5.611   5.802   0.152 -0.0002 -0.2545  0.3031
 1007TIP3    H120208   5.652   5.733   0.204 -1.0745  0.0420  1.6228
 1007TIP3    H220209   5.621   5.774   0.061  0.6365 -1.5432  0.7556
 1008TIP3   OH220210   3.008   4.556   6.785  0.1215 -0.5725  0.2686
 1008TIP3    H120211   2.938   4.497   6.757  0.1503 -0.0839 -0.8822
 1008TIP3    H220212   2.965   4.619   6.843 -0.1509 -0.9495  0.4852
 1009TIP3   OH220213   2.545   1.236   0.815 -0.8000  0.1766  0.4045
 1009TIP3    H120214   2.530   1.264   0.725  1.3638  2.0714  0.5197
 1009TIP3    H220215   2.545   1.318   0.865 -1.7557 -0.8140  2.1094
 1010TIP3   OH220216   2.298   4.983   2.066  0.3838  0.5727  0.2680
 1010TIP3    H120217   2.352   4.960   1.990  1.8248 -0.9494  1.6615
 1010TIP3    H220218   2.360   5.011   2.133 -0.5769 -0.5777  1.7120
 1011TIP3   OH220219   5.337   3.013   0.609 -0.5141 -0.3890  0.2778
 1011TIP3    H120220   5.336   2.922   0.580 -0.3446 -0.6387  1.0237
 1011TIP3    H220221   5.260   3.022   0.665 -0.2825 -0.2033  0.5721
 1012TIP3   OH220222   4.134   2.686   6.045  0.3358 -0.2902 -0.1806
 1012TIP3    H120223   4.188   2.608   6.056 -0.9980 -0.9544  2.9138
 1012TIP3    H220224   4.148   2.713   5.955  1.5839 -3.5506 -1.1096
 1013TIP3   OH220225   3.783   6.359   6.688 -0.2528  0.0502 -0.0860
 1013TIP3    H120226   3.843   6.403   6.629  2.1090 -0.7702  1.5314
 1013TIP3    H220227   3.697   6.398   6.670  0.4420  0.2769 -3.4898
 1014TIP3   OH220228   4.689   2.407   1.589  0.4779 -0.3140  0.1854
 1014TIP3    H120229   4.732   2.486   1.624 -0.4727  1.3182 -2.1033
 1014TIP3    H220230   4.599   2.412   1.622  0.3398 -0.2951 -0.1974
 1015TIP3   OH220231   1.660   4.880   1.606 -0.0001  0.2860 -0.5770
 1015TIP3    H120232   1.607   4.958   1.625 -2.7898 -1.7524  0.6337
 1015TIP3    H220233   1.672   4.838   1.691  0.7033 -1.0740 -1.3245
 1016TIP3   OH220234   0.218   1.715   1.244  0.8989  0.0862 -0.8667
 1016TIP3    H120235   0.293   1.774   1.246  1.5241 -0.6653 -1.1888
 1016TIP3    H220236   0.152   1.761   1.192  1.0274  0.8746 -0.3401
 1017TIP3   OH220237   0.962   4.671   6.779 -0.4051  0.4676  0.4770
 1017TIP3    H120238   0.930   4.633   6.861  0.6639 -1.9087 -0.1323
 1017TIP3    H220239   0.883   4.679   6.725 -1.2044  2.4755  1.7875
 1018TIP3   OH220240   6.101   4.131   6.873 -0.1641  0.0385 -0.0925
 1018TIP3    H120241   6.019   4.163   6.910  0.6431  0.3045  1.5571
 1018TIP3    H220242   6.160   4.123   6.948  0.2314 -3.7627 -0.6484
 1019TIP3   OH220243   5.156   1.969   6.206  0.4539  0.0898 -0.4780
 1019TIP3    H120244   5.131   1.977   6.113  0.7663  0.5989 -0.5217
 1019TIP3    H220245   5.073   1.960   6.252  0.2338  0.8366 -0.7153
 1020TIP3   OH220246   3.822   1.915   6.784 -0.0382 -0.1460  0.0123
 1020TIP3    H120247   3.731   1.944   6.793 -0.0765 -0.3522  0.3311
 1020TIP3    H220248   3.856   1.917   6.874  0.6425  1.1062 -0.2506
 1021TIP3   OH220249   1.773   0.397   6.905 -0.1533 -0.2730  0.8436
 1021TIP3    H120250   1.764   0.488   6.878  1.2706 -0.5852 -0.8283
 1021TIP3    H220251   1.688   0.376   6.945 -0.6535  1.6398  0.8906
 1022TIP3   OH220252   4.245   1.902   0.915  0.2763  0.0780  0.0539
 1022TIP3    H120253   4.324   1.876   0.867  0.5494  1.5454 -0.3537
 1022TIP3    H220254   4.256   1.866   1.002  1.7557  0.8708  0.2178
 1023TIP3   OH220255   0.369   0.252   0.083 -0.0358  0.0740  0.2612
 1023TIP3    H120256   0.349   0.225   0.173  0.9614 -2.1028 -0.0944
 1023TIP3    H220257   0.456   0.290   0.089  0.4338 -0.9384  0.1113
 1024TIP3   OH220258   4.775   3.257   0.134 -0.1889  0.4579  0.3115
 1024TIP3    H120259   4.704   3.309   0.099  0.7874  0.1294 -2.3929
 1024TIP3    H220260   4.835   3.320   0.173 -0.4769  1.0526 -0.1978
 1025TIP3   OH220261   4.206   0.325   6.896  0.4691  0.0170  0.0122
 1025TIP3    H120262   4.172   0.399   6.947  0.3513 -0.2779  0.3713
 1025TIP3    H220263   4.152   0.250   6.923 -0.3416  0.0677 -1.3856
 1026TIP3   OH220264   0.213   0.187   1.082 -0.1682 -0.2293  0.7307
 1026TIP3    H120265   0.281   0.210   1.145 -1.4934  2.1626  1.4148
 1026TIP3    H220266   0.241   0.231   1.001  1.1377 -2.6671 -0.2444
 1027TIP3   OH220267   1.707   1.960   4.000  0.5235 -0.3282 -0.0635
 1027TIP3    H120268   1.716   1.970   4.094 -0.8003 -1.0849  0.1680
 1027TIP3    H220269   1.777   2.014   3.963 -0.5891  2.2145  1.2815
 1028TIP3   OH220270   1.267   1.880   3.420  0.5732 -0.6263  0.3033
 1028TIP3    H120271   1.282   1.964   3.376 -0.2094  0.0285  1.2468
 1028TIP3    H220272   1.312   1.888   3.504  0.1560 -0.9877  0.5660
 1029TIP3   OH220273   3.065   2.686   6.517 -0.1877  0.5582  0.0340
 1029TIP3    H120274   3.069   2.642   6.433  0.9655 -3.2317  1.8443
 1029TIP3    H220275   3.145   2.739   6.521  0.2067  0.0457 -0.9013
 1030TIP3   OH220276   1.997   4.165   5.686 -0.5448 -0.4647 -0.1040
 1030TIP3    H120277   1.906   4.138   5.670 -0.9362  0.4653  0.4962
 1030TIP3    H220278   2.024   4.112   5.761 -1.0373  0.1866  0.5469
 1031TIP3   OH220279   5.551   3.204   0.639 -0.0519 -0.2326  0.1683
 1031TIP3    H120280   5.546   3.220   0.544  2.5058  0.8442  0.1325
 1031TIP3    H220281   5.479   3.143   0.657 -1.0877  0.1383 -2.3170
 1032TIP3   OH220282   1.728   5.532   0.499 -0.1546 -0.0288 -0.4848
 1032TIP3    H120283   1.672   5.561   0.570 -1.2508  1.1101 -1.7733
 1032TIP3    H220284   1.743   5.610   0.446 -0.7742 -1.1770 -2.4473
 1033TIP3   OH220285   1.881   1.018   2.501  0.1216  0.6745  0.4869
 1033TIP3    H120286   1.832   1.054   2.427 -0.1263  0.9418  0.7770
 1033TIP3    H220287   1.852   1.070   2.576 -0.7090 -0.5428  1.0310
 1034TIP3   OH220288   5.136   0.136   0.291  0.1264 -0.7401 -0.3455
 1034TIP3    H120289   5.146   0.085   0.211  0.9004 -1.5984  0.2817
 1034TIP3    H220290   5.042   0.136   0.309  0.2165 -3.1750  0.4137
 1035TIP3   OH220291   1.635   3.618   2.115 -0.0930 -0.4573 -0.4632
 1035TIP3    H120292   1.650   3.706   2.081  0.0837 -1.1080 -2.1473
 1035TIP3    H220293   1.635   3.629   2.210 -0.2836  1.3857 -0.6367
 1036TIP3   OH220294   5.640   4.496   1.003  0.2800  0.3653  0.4074
 1036TIP3    H120295   5.636   4.589   0.979 -1.6816 -0.1090 -1.4595
 1036TIP3    H220296   5.730   4.470   0.981  0.1695  1.3004 -1.3536
 1037TIP3   OH220297   0.858   6.326   1.241  0.1693  0.1791 -0.6452
 1037TIP3    H120298   0.889   6.398   1.186 -2.7197  1.5104 -0.7092
 1037TIP3    H220299   0.878   6.353   1.330 -2.1371  1.8470 -0.5568
 1038TIP3   OH220300   1.328   3.097   1.547 -0.1736 -0.2076 -0.1883
 1038TIP3    H120301   1.368   3.174   1.587 -0.0782 -0.3324 -0.0403
 1038TIP3    H220302   1.356   3.024   1.602 -0.3025 -0.3427 -0.2990
 1039TIP3   OH220303   2.902   5.448   6.792 -0.2061 -0.5403 -0.0051
 1039TIP3    H120304   2.864   5.443   6.704  0.4124  0.4317 -0.3484
 1039TIP3    H220305   2.828   5.467   6.850 -0.5208 -0.5341 -0.4051
 1040TIP3   OH220306   0.994   6.488   6.600 -0.1556  0.2709 -0.6532
 1040TIP3    H120307   1.065   6.425   6.588 -0.2578  0.2220 -1.0129
 1040TIP3    H220308   0.944   6.484   6.518 -0.4333  0.4786 -0.4966
 1041TIP3   OH220309   0.300   5.242   5.934 -0.7229 -0.2551 -0.0114
 1041TIP3    H120310   0.298   5.319   5.876  0.4280 -0.1867  0.0083
 1041TIP3    H220311   0.209   5.230   5.962 -0.9025  1.2198  0.1263
 1042TIP3   OH220312   6.601   0.987   2.051  0.1195 -0.0862  0.8403
 1042TIP3    H120313   6.552   1.058   2.010  0.3386 -0.9546 -1.0532
 1042TIP3    H220314   6.673   1.030   2.097  0.2424  0.9285 -0.2691
 1043TIP3   OH220315   6.421   0.917   7.637 -0.4378  0.2213 -0.2177
 1043TIP3    H120316   6.368   0.955   7.566 -0.1891  1.6183  0.3081
 1043TIP3    H220317   6.429   0.988   7.700  0.5096 -0.5759  0.5712
 1044TIP3   OH220318   6.447   2.740   1.003  0.1590 -0.2911  0.4600
 1044TIP3    H120319   6.429   2.825   1.042  1.3992 -0.9226  2.5526
 1044TIP3    H220320   6.415   2.748   0.913 -2.3767  1.4088  1.3980
 1045TIP3   OH220321   2.122   5.520   7.167  0.4595 -0.0711  0.0655
 1045TIP3    H120322   2.217   5.529   7.152  0.3501 -0.2658 -0.7680
 1045TIP3    H220323   2.095   5.450   7.108 -0.3883  0.6645 -0.4264
 1046TIP3   OH220324   4.069   0.070   0.206 -0.1972 -0.0742  0.0525
 1046TIP3    H120325   4.146   0.082   0.262 -0.9424  0.4916  0.9803
 1046TIP3    H220326   4.025  -0.007   0.243 -0.0126 -0.4768 -0.5582
 1047TIP3   OH220327   5.375   1.292   1.330 -0.3711 -0.6787 -0.0704
 1047TIP3    H120328   5.361   1.198   1.319  0.4114 -0.5585 -2.9132
 1047TIP3    H220329   5.347   1.330   1.247 -0.5740  1.6268  0.9822
 1048TIP3   OH220330   4.931   1.220   6.738 -0.1917  0.7193  0.1200
 1048TIP3    H120331   4.980   1.226   6.656  0.5927 -0.6262  0.4628
 1048TIP3    H220332   4.924   1.126   6.755 -0.7829  0.9634  1.3381
 1049TIP3   OH220333   3.715   4.404   0.962 -0.5542  0.1939  0.3312
 1049TIP3    H120334   3.738   4.449   1.044  0.7595  0.9368 -0.4175
 1049TIP3    H220335   3.704   4.313   0.988  0.3508  0.3294  1.2609
 1050TIP3   OH220336   6.239   1.495   0.598  0.1027  0.3336  0.4616
 1050TIP3    H120337   6.182   1.423   0.570  2.7002 -1.6521 -0.2127
 1050TIP3    H220338   6.262   1.540   0.516  0.7455  0.0774  0.4922
 1051TIP3   OH220339   5.968   4.437   0.329 -0.4417  0.2181 -0.6599
 1051TIP3    H120340   5.896   4.472   0.276 -1.0102  0.0725 -0.0004
 1051TIP3    H220341   5.992   4.510   0.387 -2.5957 -0.8210  1.7323
 1052TIP3   OH220342   4.137   2.063   7.101 -0.2728  0.6068  0.0080
 1052TIP3    H120343   4.154   1.970   7.092  1.1257  0.8727 -0.4331
 1052TIP3    H220344   4.141   2.080   7.195 -0.2216  0.2767  0.0639
 1053TIP3   OH220345   5.287   1.712   7.256 -1.2236 -0.0322 -0.3109
 1053TIP3    H120346   5.331   1.685   7.175 -0.2132 -0.2112  0.2812
 1053TIP3    H220347   5.249   1.632   7.291  0.1785 -0.3975  0.4767
 1054TIP3   OH220348   5.333   1.612   6.511 -0.1631  0.4811  0.1810
 1054TIP3    H120349   5.316   1.585   6.420 -0.0031  1.1483 -0.0489
 1054TIP3    H220350   5.253   1.656   6.539  0.9750  3.4547 -0.8421
 1055TIP3   OH220351   4.528   2.568   6.869 -0.1760  0.3528  0.2611
 1055TIP3    H120352   4.532   2.625   6.946  0.3756 -0.0186  0.5140
 1055TIP3    H220353   4.566   2.485   6.899 -1.7781 -0.4656  0.1737
 1056TIP3   OH220354   2.258   4.547   1.343 -0.0377 -0.7348  0.1403
 1056TIP3    H120355   2.185   4.532   1.284  1.1704 -1.8087 -1.1354
 1056TIP3    H220356   2.315   4.472   1.331  1.0391 -0.1857  1.5020
 1057TIP3   OH220357   1.788   0.577   2.027  0.1860 -0.9946  0.2600
 1057TIP3    H120358   1.694   0.559   2.038  0.2033 -0.9300  0.5145
 1057TIP3    H220359   1.831   0.521   2.091  0.3466 -1.3190 -0.1335
 1058TIP3   OH220360   4.512   6.065   7.724 -0.3823  0.4732 -0.1584
 1058TIP3    H120361   4.589   6.008   7.719 -0.7578  0.0781 -1.8578
 1058TIP3    H220362   4.517   6.105   7.812  1.4101 -0.0122 -0.0127
 1059TIP3   OH220363   3.801   2.616   0.122 -0.0088 -0.0823 -0.0607
 1059TIP3    H120364   3.753   2.697   0.142  0.4090  0.0799  0.2951
 1059TIP3    H220365   3.737   2.561   0.077  0.1494  1.1273 -1.9170
 1060TIP3   OH220366   1.645   3.515   2.751  0.0320  0.1718  0.1416
 1060TIP3    H120367   1.656   3.543   2.842  1.9132  0.0227 -0.0162
 1060TIP3    H220368   1.595   3.585   2.710 -1.8698 -0.2803  1.5328
 1061TIP3   OH220369   2.880   0.940   0.326 -0.1454 -0.3933  0.3200
 1061TIP3    H120370   2.795   0.955   0.285 -0.5025 -0.3137  1.0820
 1061TIP3    H220371   2.882   1.000   0.401  1.8381  1.9267 -1.4281
 1062TIP3   OH220372   6.308   0.532   0.174  0.4672 -1.1289  0.0212
 1062TIP3    H120373   6.322   0.493   0.088 -2.6810  0.7628 -1.5595
 1062TIP3    H220374   6.342   0.621   0.166  1.1778 -1.2815  1.1557
 1063TIP3   OH220375   3.031   2.533   7.180 -0.7831 -0.1220  0.0413
 1063TIP3    H120376   2.989   2.603   7.129 -0.5061 -0.6512 -0.9170
 1063TIP3    H220377   3.116   2.570   7.206 -0.6868 -0.0607 -0.3598
 1064TIP3   OH220378   2.207   0.804   7.279  0.0520  0.2660 -0.1023
 1064TIP3    H120379   2.138   0.765   7.224 -0.9523  0.9592  0.6209
 1064TIP3    H220380   2.258   0.729   7.311 -1.2589 -0.4037  0.5131
 1065TIP3   OH220381   1.015   0.284   1.667  0.1123  0.2092  0.6762
 1065TIP3    H120382   0.926   0.260   1.639  0.0977  0.1322  0.7856
 1065TIP3    H220383   1.046   0.207   1.714  0.8900 -0.4327 -0.8303
 1066TIP3   OH220384   3.064   3.448   0.598 -0.3983  0.2771  0.1900
 1066TIP3    H120385   3.031   3.501   0.670 -1.3029  1.9354 -1.3689
 1066TIP3    H220386   3.155   3.431   0.620 -1.1991 -1.2491  2.8028
 1067TIP3   OH220387   5.721   5.594   0.326  0.0991 -0.5649  0.4272
 1067TIP3    H120388   5.796   5.561   0.376  0.9080  0.1847 -0.2396
 1067TIP3    H220389   5.644   5.562   0.373  0.8230 -0.3087  1.8556
 1068TIP3   OH220390   4.485   5.048   0.947  0.4470  0.2197  0.3920
 1068TIP3    H120391   4.518   4.960   0.963  0.0669  0.5424  3.5075
 1068TIP3    H220392   4.391   5.037   0.931  0.8125 -0.0925 -1.9817
 1069TIP3   OH220393   0.378   4.605   7.285  0.1880  0.0422 -0.5160
 1069TIP3    H120394   0.305   4.555   7.247 -0.4061  1.4920 -1.3854
 1069TIP3    H220395   0.338   4.657   7.354  0.3242  1.0120 -1.1410
 1070TIP3   OH220396   3.892   1.169   0.257 -0.2356 -0.0094 -0.5465
 1070TIP3    H120397   3.882   1.143   0.166 -1.4794  0.9009 -0.6878
 1070TIP3    H220398   3.984   1.196   0.263  0.5736 -2.4208 -0.8629
 1071TIP3   OH220399   3.188   0.694   5.950  0.5199 -0.0323 -0.2801
 1071TIP3    H120400   3.249   0.626   5.976  1.1796  2.0795  4.9292
 1071TIP3    H220401   3.244   0.770   5.930 -0.2739  0.6948  0.1955
 1072TIP3   OH220402   5.084   0.735   0.512 -0.1127 -0.1114 -0.0138
 1072TIP3    H120403   5.084   0.645   0.545 -0.7775  0.0759  0.5262
 1072TIP3    H220404   4.992   0.760   0.512  0.2158  1.6546  2.8803
 1073TIP3   OH220405   0.736   1.180   7.107 -0.4500  0.0571 -0.1622
 1073TIP3    H120406   0.642   1.190   7.092 -0.4760 -0.5352 -0.4726
 1073TIP3    H220407   0.746   1.179   7.202 -0.7684  0.0421 -0.1280
 1074TIP3   OH220408   4.341   0.165   0.615  0.3759  0.6350  0.0684
 1074TIP3    H120409   4.255   0.207   0.617  0.1237  0.1843 -0.9490
 1074TIP3    H220410   4.352   0.131   0.704 -0.2341  1.2187  0.3782
 1075TIP3   OH220411   4.841   3.293   7.076  0.5546 -0.6726 -0.0558
 1075TIP3    H120412   4.805   3.227   7.136  0.6569  0.0341  0.8117
 1075TIP3    H220413   4.829   3.256   6.989 -2.9091 -0.2248  0.1019
 1076TIP3   OH220414   2.152   3.675   6.620 -0.1123  0.0708 -0.1899
 1076TIP3    H120415   2.195   3.662   6.536  2.1821 -1.5085  1.1367
 1076TIP3    H220416   2.204   3.743   6.663 -1.4647  1.1075 -0.1176
 1077TIP3   OH220417   3.315   2.554   0.885 -0.4690 -1.3859 -0.2911
 1077TIP3    H120418   3.293   2.464   0.910 -1.6033 -1.2423 -0.7286
 1077TIP3    H220419   3.246   2.607   0.924  0.2874 -0.6793  0.0991
 1078TIP3   OH220420   4.318   5.306   7.244  0.1195  0.3546  0.0729
 1078TIP3    H120421   4.368   5.225   7.247  0.0871  0.3618  1.3696
 1078TIP3    H220422   4.338   5.344   7.158  0.7232 -0.6395 -0.2386
 1079TIP3   OH220423   0.850   4.333   6.063 -0.2772 -0.3398 -0.1773
 1079TIP3    H120424   0.876   4.415   6.021  2.4144 -1.0782 -0.1443
 1079TIP3    H220425   0.791   4.292   6.000 -1.8785  1.6590 -0.0943
 1080TIP3   OH220426   0.638   1.917   0.837  0.0225 -0.0721 -0.4158
 1080TIP3    H120427   0.706   1.931   0.903  1.5453  0.6301 -2.0432
 1080TIP3    H220428   0.572   1.984   0.856 -0.0475 -0.5000  0.9393
 1081TIP3   OH220429   5.443   5.521   0.446 -0.0088  0.2690  0.4486
 1081TIP3    H120430   5.351   5.541   0.462 -0.0096 -0.3645  1.2823
 1081TIP3    H220431   5.489   5.560   0.520  0.2510 -0.5988  0.7464
 1082TIP3   OH220432   5.006   2.400   1.503 -0.2646  0.1635  0.2365
 1082TIP3    H120433   4.963   2.314   1.507 -0.4966  0.1492 -1.6600
 1082TIP3    H220434   4.949   2.458   1.552 -1.1384 -0.3869 -0.1045
 1083TIP3   OH220435   2.004   2.178   1.026 -0.1051 -0.0964  0.3802
 1083TIP3    H120436   2.049   2.118   1.086 -0.0280  0.8044  1.2370
 1083TIP3    H220437   1.918   2.190   1.064 -0.5991 -0.7026 -0.5125
 1084TIP3   OH220438   1.715   1.336   4.259 -0.2002  0.0229 -0.0425
 1084TIP3    H120439   1.808   1.345   4.280 -0.0950 -1.0419  0.0262
 1084TIP3    H220440   1.679   1.284   4.332 -0.8324  0.3763 -0.0968
 1085TIP3   OH220441   0.764   3.820   7.520 -0.2778  0.3656  0.0795
 1085TIP3    H120442   0.846   3.772   7.529 -1.2767 -1.2436  1.3247
 1085TIP3    H220443   0.705   3.759   7.475 -0.8332  1.4488 -0.7043
 1086TIP3   OH220444   0.232   1.031   0.579 -0.1778  0.4465 -0.2774
 1086TIP3    H120445   0.221   1.083   0.499  0.1102  1.6560  0.4603
 1086TIP3    H220446   0.144   1.024   0.616 -0.5551 -1.2541 -1.3535
 1087TIP3   OH220447   0.305   2.297   2.424 -0.3879  0.1637  0.0333
 1087TIP3    H120448   0.333   2.228   2.485 -0.3488  1.0926  1.0845
 1087TIP3    H220449   0.255   2.358   2.478  1.9063  2.4359 -0.2274
 1088TIP3   OH220450   5.443   4.352   2.204 -0.5065  0.4996  0.1009
 1088TIP3    H120451   5.475   4.313   2.123 -1.5232  1.3050 -0.7157
 1088TIP3    H220452   5.454   4.446   2.192 -0.2039  0.6053  1.1106
 1089TIP3   OH220453   0.570   1.726   7.545 -0.3788  0.1254  0.4116
 1089TIP3    H120454   0.595   1.778   7.621  0.0216 -0.8493  0.9676
 1089TIP3    H220455   0.644   1.666   7.532 -0.4968  0.1991 -0.6678
 1090TIP3   OH220456   5.852   6.575   6.713  0.8787 -0.4417  0.3463
 1090TIP3    H120457   5.853   6.484   6.745 -0.3184 -0.8702 -0.7700
 1090TIP3    H220458   5.760   6.596   6.702  1.1722  0.5970 -0.3093
 1091TIP3   OH220459   6.418   6.001   1.268  0.2529  0.2949 -0.2300
 1091TIP3    H120460   6.393   5.910   1.285 -3.8167  1.3445  0.6037
 1091TIP3    H220461   6.391   6.017   1.178  1.6743  0.5424 -0.6400
 1092TIP3   OH220462   4.874   2.868   7.285  0.4781 -0.1688  0.2236
 1092TIP3    H120463   4.809   2.937   7.292 -0.3144 -0.7609 -0.9600
 1092TIP3    H220464   4.852   2.806   7.355 -0.6875 -0.7115 -0.5984
 1093TIP3   OH220465   3.899   6.148   7.061  0.1445  0.4901 -0.0610
 1093TIP3    H120466   3.820   6.113   7.104 -0.6596  2.4826  0.1702
 1093TIP3    H220467   3.949   6.187   7.132  2.8958 -3.1595  0.3287
 1094TIP3   OH220468   5.788   4.465   0.617  0.5153  0.4632  0.0501
 1094TIP3    H120469   5.850   4.396   0.642  0.5773  0.0812 -1.1248
 1094TIP3    H220470   5.823   4.543   0.659 -0.1266 -0.3600  2.2988
 1095TIP3   OH220471   1.433   3.084   7.378  0.2947 -0.3965  0.4059
 1095TIP3    H120472   1.440   3.045   7.290  1.9541 -2.1139  1.2147
 1095TIP3    H220473   1.451   3.177   7.364 -0.1310 -0.5145 -1.1555
 1096TIP3   OH220474   5.279   3.059   7.009  0.6076  0.4233 -0.3192
 1096TIP3    H120475   5.327   3.071   7.091  0.3334 -0.9517  0.0554
 1096TIP3    H220476   5.348   3.056   6.942  1.0878 -1.4789  0.2093
 1097TIP3   OH220477   2.861   0.115   6.264 -0.0232  0.2530 -0.2306
 1097TIP3    H120478   2.774   0.137   6.297 -0.3279 -1.0093 -0.1555
 1097TIP3    H220479   2.862   0.149   6.174 -0.4665  0.5788 -0.1109
 1098TIP3   OH220480   4.170   3.307   6.955 -0.0149  0.1839  0.2810
 1098TIP3    H120481   4.140   3.238   7.014  0.4796 -0.2980 -0.0264
 1098TIP3    H220482   4.167   3.387   7.008  0.3386 -0.2280  0.9287
 1099TIP3   OH220483   6.244   2.194   6.085  0.3642  0.3748  0.2307
 1099TIP3    H120484   6.249   2.286   6.058 -1.1351  0.2877 -0.4458
 1099TIP3    H220485   6.323   2.180   6.136  2.3306  1.1496 -2.3535
 1100TIP3   OH220486   3.000   2.200   5.874  0.2518  0.4558  0.3475
 1100TIP3    H120487   2.951   2.136   5.925  1.5975  0.9997  2.4241
 1100TIP3    H220488   3.081   2.213   5.923  1.4617  1.3219 -1.7445
 1101TIP3   OH220489   3.862   1.039   6.604  0.0616  0.6772  0.2063
 1101TIP3    H120490   3.783   0.992   6.578 -0.7351  0.8247  2.2663
 1101TIP3    H220491   3.927   0.970   6.619  0.7322  0.5891 -2.4340
 1102TIP3   OH220492   5.170   0.267   6.649  0.2645  0.0942 -0.6848
 1102TIP3    H120493   5.235   0.199   6.632  0.7964  0.6110 -0.7424
 1102TIP3    H220494   5.217   0.334   6.697 -0.9521 -0.8466  2.0161
 1103TIP3   OH220495   4.888   2.120   6.805  0.4558 -0.4486  0.0615
 1103TIP3    H120496   4.850   2.172   6.734 -0.3658  0.9307  1.4270
 1103TIP3    H220497   4.908   2.035   6.765  0.5668  0.4498 -1.9287
 1104TIP3   OH220498   6.264   6.019   0.483 -0.0024  0.3331 -0.2840
 1104TIP3    H120499   6.182   6.054   0.516 -0.6048 -1.0362 -0.2526
 1104TIP3    H220500   6.264   6.041   0.390 -2.0102 -2.4100 -1.0563
 1105TIP3   OH220501   6.401   1.855   0.907  0.8101  0.4538 -0.0507
 1105TIP3    H120502   6.370   1.944   0.892  1.8038  0.8799  0.3726
 1105TIP3    H220503   6.351   1.802   0.844  0.4655  1.3476 -0.5538
 1106TIP3   OH220504   1.336   6.118   7.597  0.1814 -0.9238 -0.2032
 1106TIP3    H120505   1.266   6.140   7.659 -2.0057 -1.2510 -2.3960
 1106TIP3    H220506   1.382   6.201   7.583 -0.5713 -0.4006  0.3440
 1107TIP3   OH220507   1.805   2.356   1.101 -0.3090 -0.1276 -0.4476
 1107TIP3    H120508   1.813   2.348   1.196  0.8750 -0.3092 -0.5494
 1107TIP3    H220509   1.826   2.447   1.082  0.0411 -0.2324 -0.5811
 1108TIP3   OH220510   2.756   4.085   1.355 -0.3689  0.1369  0.0624
 1108TIP3    H120511   2.707   4.049   1.281  3.0440 -0.5929 -2.0936
 1108TIP3    H220512   2.789   4.169   1.323  1.5491 -0.3980  0.4787
 1109TIP3   OH220513   3.758   1.634   5.656  0.5658  0.0812  0.0952
 1109TIP3    H120514   3.800   1.549   5.670  2.3473  0.5373 -1.9600
 1109TIP3    H220515   3.709   1.623   5.575 -1.2136  0.3553  1.0857
 1110TIP3   OH220516   0.783   2.784   0.643  0.1557 -0.2517  0.3791
 1110TIP3    H120517   0.806   2.775   0.735  2.6602 -1.5149 -0.2780
 1110TIP3    H220518   0.741   2.701   0.621  0.7059 -0.4730  0.1271
 1111TIP3   OH220519   1.741   0.040   7.647  0.5643  0.1985 -0.5310
 1111TIP3    H120520   1.697   0.124   7.658  1.4271  0.5321  0.5450
 1111TIP3    H220521   1.702   0.003   7.568  0.1977  1.6286 -1.0604
 1112TIP3   OH220522   2.612   6.351   1.134  0.4378 -0.1448  0.4395
 1112TIP3    H120523   2.541   6.288   1.132 -0.6220  0.9587  1.3818
 1112TIP3    H220524   2.595   6.409   1.059  1.1272 -0.6603 -0.1311
 1113TIP3   OH220525   2.469   4.812   0.157 -0.1868  0.7913 -0.7546
 1113TIP3    H120526   2.432   4.894   0.125 -1.7184  0.0242 -1.0546
 1113TIP3    H220527   2.428   4.799   0.243  0.3222  0.5101 -0.5466
 1114TIP3   OH220528   1.557   0.246   7.041 -0.4667 -0.0694 -0.1436
 1114TIP3    H120529   1.502   0.303   6.988 -0.7872 -1.3207 -1.2011
 1114TIP3    H220530   1.598   0.186   6.979  0.3004 -0.6419  0.8705
 1115TIP3   OH220531   1.907   1.276   6.349 -0.1786  0.0449 -0.1521
 1115TIP3    H120532   1.974   1.214   6.317  0.5425  0.5515  0.3366
 1115TIP3    H220533   1.945   1.311   6.429 -0.9236  0.5557 -0.0234
 1116TIP3   OH220534   1.020   4.236   1.917 -0.6447  0.0881  0.3923
 1116TIP3    H120535   0.948   4.197   1.966 -1.4741  0.3015 -0.6043
 1116TIP3    H220536   0.980   4.309   1.870  0.5035  1.0444  0.8428
 1117TIP3   OH220537   1.142   0.545   0.808 -0.0939  0.0501 -0.0753
 1117TIP3    H120538   1.150   0.567   0.901  3.1939  2.8546 -0.8005
 1117TIP3    H220539   1.221   0.493   0.790 -0.0089  0.6446 -1.5129
 1118TIP3   OH220540   2.294   5.236   1.074 -0.5841  0.0608 -0.3692
 1118TIP3    H120541   2.312   5.225   0.980  1.0317  0.4699 -0.1287
 1118TIP3    H220542   2.361   5.183   1.118 -0.0081  1.5282  0.5783
 1119TIP3   OH220543   5.943   2.404   7.585 -0.3427  0.3367  0.2716
 1119TIP3    H120544   5.882   2.363   7.646  0.6399  1.8574  2.3810
 1119TIP3    H220545   5.965   2.334   7.523 -1.7661 -1.1235  1.3168
 1120TIP3   OH220546   2.119   1.490   1.674  0.0895 -0.0982  0.4203
 1120TIP3    H120547   2.158   1.442   1.600  0.2615  0.8167 -0.1047
 1120TIP3    H220548   2.045   1.436   1.702 -0.5943  0.0123 -1.0766
 1121TIP3   OH220549   4.165   2.296   1.747  0.1357  0.1403  0.3075
 1121TIP3    H120550   4.135   2.264   1.832  0.7357 -0.0720  0.4466
 1121TIP3    H220551   4.086   2.295   1.692 -0.1818 -0.0685  0.7571
 1122TIP3   OH220552   4.905   1.350   1.053  0.4190 -0.1177 -0.0907
 1122TIP3    H120553   4.971   1.336   0.985  1.5441 -1.3623  1.1833
 1122TIP3    H220554   4.828   1.303   1.022  1.2969 -1.6854 -0.0233
 1123TIP3   OH220555   1.685   2.826   6.846  0.2945  0.9566 -0.5390
 1123TIP3    H120556   1.696   2.906   6.898  1.6077  0.8990 -0.6823
 1123TIP3    H220557   1.773   2.807   6.814 -0.1851 -0.0032 -1.3235
 1124TIP3   OH220558   2.761   5.251   1.728  0.1821  0.2636  0.7262
 1124TIP3    H120559   2.748   5.309   1.803  0.3737  0.1484  0.8466
 1124TIP3    H220560   2.730   5.302   1.653  0.0374  0.3971  0.8757
 1125TIP3   OH220561   1.474   6.332   7.533 -0.1974  0.7111  0.0237
 1125TIP3    H120562   1.413   6.388   7.484 -0.4205  0.4009 -0.0526
 1125TIP3    H220563   1.553   6.386   7.542 -1.0212  1.7412  1.5369
 1126TIP3   OH220564   4.683   5.553   6.950 -0.1749  0.1887 -0.1606
 1126TIP3    H120565   4.662   5.632   7.001  0.3793 -1.2751  2.5406
 1126TIP3    H220566   4.611   5.493   6.970 -0.5881 -0.0551 -2.1742
 1127TIP3   OH220567   0.667   0.749   6.942  0.4560 -0.7544  0.3989
 1127TIP3    H120568   0.584   0.706   6.921  0.2959 -0.1082 -0.3087
 1127TIP3    H220569   0.727   0.720   6.873  0.4010 -0.0076  0.0339
 1128TIP3   OH220570   0.543   0.848   6.092 -0.2175 -0.4911  0.3038
 1128TIP3    H120571   0.575   0.852   6.002  0.4519  1.7224  0.5785
 1128TIP3    H220572   0.592   0.916   6.138 -1.2558 -0.9053  2.1221
 1129TIP3   OH220573   4.947   2.600   0.321 -0.0684  0.3804  0.3183
 1129TIP3    H120574   4.902   2.533   0.373 -1.7848 -0.6339 -2.2830
 1129TIP3    H220575   4.923   2.581   0.231  2.2483  2.4431 -0.8536
 1130TIP3   OH220576   2.221   1.738   1.780 -0.4272 -0.0425 -0.3121
 1130TIP3    H120577   2.223   1.656   1.829  0.6295 -0.6607 -1.3227
 1130TIP3    H220578   2.171   1.717   1.701 -0.1550  0.2836 -0.5704
 1131TIP3   OH220579   1.083   1.679   7.662  0.2439  0.0010  0.1482
 1131TIP3    H120580   1.082   1.760   7.612 -1.4116  0.1013  0.2712
 1131TIP3    H220581   1.070   1.706   7.753  2.8413 -0.2105  0.6611
 1132TIP3   OH220582   6.456   3.710   1.939 -0.4215  0.1476  0.3071
 1132TIP3    H120583   6.432   3.652   1.866  0.5333 -0.4152  0.4206
 1132TIP3    H220584   6.420   3.795   1.914  1.1960  0.3518 -1.6118
 1133TIP3   OH220585   6.079   1.557   6.378 -0.0219 -0.3286 -0.6480
 1133TIP3    H120586   6.048   1.475   6.415  1.5901 -1.1638 -1.0416
 1133TIP3    H220587   6.007   1.589   6.325 -1.4085 -0.4611  1.0525
 1134TIP3   OH220588   0.879   1.936   7.534  0.1739  0.5640 -0.2557
 1134TIP3    H120589   0.827   1.994   7.478 -0.9860 -2.6249 -2.7890
 1134TIP3    H220590   0.831   1.935   7.617 -1.7587  0.5617 -1.3126
 1135TIP3   OH220591   5.543   4.304   7.072  0.0298 -0.7282  0.4263
 1135TIP3    H120592   5.610   4.339   7.131  0.7367 -2.0881  0.4816
 1135TIP3    H220593   5.466   4.293   7.128 -0.1984  0.6443  0.4123
 1136TIP3   OH220594   5.344   4.998   0.067 -0.2420  0.5095 -0.9446
 1136TIP3    H120595   5.308   4.939   0.001  0.7012 -0.7093 -0.3980
 1136TIP3    H220596   5.361   5.080   0.020 -1.3809  0.2989 -1.7525
 1137TIP3   OH220597   0.929   1.746   5.677  0.0219  0.0252  0.6931
 1137TIP3    H120598   0.996   1.798   5.633  0.0005 -0.3265  0.2363
 1137TIP3    H220599   0.925   1.664   5.627 -0.5988 -0.0412  0.8372
 1138TIP3   OH220600   2.634   2.622   6.300  0.4393 -0.3116 -0.6529
 1138TIP3    H120601   2.692   2.698   6.292  1.1813 -0.8125 -0.1131
 1138TIP3    H220602   2.602   2.626   6.390 -0.3857 -0.0381 -0.9456
 1139TIP3   OH220603   6.003   0.775   1.738  0.2325 -0.4518 -0.3611
 1139TIP3    H120604   5.945   0.841   1.775 -3.0168 -2.6265 -1.1279
 1139TIP3    H220605   6.066   0.756   1.808 -1.3950  0.4276  1.4388
 1140TIP3   OH220606   6.068   5.886   6.288  0.2544  0.4870  0.3624
 1140TIP3    H120607   6.019   5.950   6.236  0.7205  0.2735 -0.3423
 1140TIP3    H220608   6.109   5.829   6.224  0.8697  0.2414  0.9659
 1141TIP3   OH220609   2.960   6.468   5.928 -0.3283 -0.0600  0.3425
 1141TIP3    H120610   2.969   6.455   5.834 -1.2828 -1.2537  0.3933
 1141TIP3    H220611   2.999   6.390   5.967 -0.1927  0.2942  0.9303
 1142TIP3   OH220612   2.369   1.358   2.593 -0.0517  0.5833  0.1834
 1142TIP3    H120613   2.410   1.297   2.653  0.6468  0.1974 -0.6684
 1142TIP3    H220614   2.441   1.396   2.543 -0.4804  1.9749  0.5550
 1143TIP3   OH220615   5.821   1.628   6.623 -0.0022  0.1447  0.8273
 1143TIP3    H120616   5.879   1.703   6.616  0.5594 -0.1984  1.6799
 1143TIP3    H220617   5.793   1.627   6.714 -1.6779  0.5312  0.3497
 1144TIP3   OH220618   3.034   6.517   2.033 -0.5293 -0.2767  0.3957
 1144TIP3    H120619   3.028   6.569   1.953 -0.2429  0.8429  1.0689
 1144TIP3    H220620   2.945   6.514   2.067 -0.2118  2.0553  1.6929
 1145TIP3   OH220621   4.573   5.269   0.776 -0.4127  0.1295 -0.7261
 1145TIP3    H120622   4.603   5.231   0.694  0.7637 -0.4751 -0.0468
 1145TIP3    H220623   4.536   5.195   0.824  1.2183 -0.0795  0.3037
 1146TIP3   OH220624   2.438   6.321   7.618  0.4022 -0.2048  0.1323
 1146TIP3    H120625   2.368   6.259   7.641  1.2040 -0.8553  0.8959
 1146TIP3    H220626   2.414   6.353   7.531 -1.7552  0.8941  1.0458
 1147TIP3   OH220627   0.905   6.337   0.893 -0.2621 -0.3964 -0.4784
 1147TIP3    H120628   0.825   6.289   0.915 -0.5762  0.1175 -0.4775
 1147TIP3    H220629   0.942   6.290   0.820 -0.2343 -1.0064 -0.0759
 1148TIP3   OH220630   4.473   1.349   6.434  0.1898  0.0824  0.0085
 1148TIP3    H120631   4.379   1.351   6.413 -0.9321 -5.1712  2.7119
 1148TIP3    H220632   4.485   1.420   6.497 -2.3057  0.1975  0.4563
 1149TIP3   OH220633   0.261   2.884   6.240  0.0961 -0.7686 -0.2405
 1149TIP3    H120634   0.178   2.836   6.237  0.7584 -2.0142 -3.3741
 1149TIP3    H220635   0.303   2.853   6.320 -2.3659 -0.1232  1.4300
 1150TIP3   OH220636   3.766   3.506   7.155 -0.4560 -0.5305  0.1130
 1150TIP3    H120637   3.767   3.602   7.152 -2.6140 -0.4811 -0.8695
 1150TIP3    H220638   3.847   3.482   7.200  2.4042  1.5955 -3.3826
 1151TIP3   OH220639   1.355   2.513   7.376 -0.1172  0.1455  0.1884
 1151TIP3    H120640   1.431   2.513   7.434 -0.2575 -0.1947  0.3723
 1151TIP3    H220641   1.387   2.552   7.295  0.2660 -0.0415  0.2498
 1152TIP3   OH220642   1.871   0.164   5.529  0.0827  0.5949 -0.0493
 1152TIP3    H120643   1.837   0.127   5.610  1.7019  0.8971  0.8097
 1152TIP3    H220644   1.966   0.163   5.540  0.4040 -0.0686 -2.2658
 1153TIP3   OH220645   6.532   5.284   0.272 -0.0211 -0.0241  0.0233
 1153TIP3    H120646   6.555   5.191   0.265 -0.1826 -0.0127 -0.8540
 1153TIP3    H220647   6.615   5.331   0.266  0.4684 -0.1727  3.6949
 1154TIP3   OH220648   3.472   1.148   5.869 -0.3322  0.0744  0.2964
 1154TIP3    H120649   3.502   1.144   5.778  1.4793  0.3943  0.8574
 1154TIP3    H220650   3.502   1.233   5.901  1.8588 -1.2831  2.1134
 1155TIP3   OH220651   2.184   6.468   0.099  0.4717  0.2378  0.0980
 1155TIP3    H120652   2.182   6.395   0.038 -2.9924 -0.4172  0.7828
 1155TIP3    H220653   2.248   6.442   0.165 -0.0775 -1.8530 -0.1093
 1156TIP3   OH220654   1.653   2.501   0.574  0.4878 -0.3307  0.4234
 1156TIP3    H120655   1.587   2.549   0.524  2.1616  1.7562  0.1200
 1156TIP3    H220656   1.721   2.565   0.592  1.4593 -1.8821  2.5971
 1157TIP3   OH220657   2.373   3.624   6.016 -0.1620 -0.2651  0.0925
 1157TIP3    H120658   2.312   3.694   5.995 -0.4564 -0.7532 -0.7130
 1157TIP3    H220659   2.330   3.544   5.986 -0.4279 -0.9869  2.1813
 1158TIP3   OH220660   3.355   1.610   6.048 -0.5430  0.4249  0.1202
 1158TIP3    H120661   3.418   1.671   6.086  0.3679 -1.0895  1.2106
 1158TIP3    H220662   3.294   1.591   6.120  0.5127 -1.5919  0.5744
 1159TIP3   OH220663   1.024   2.212   6.786 -0.5963  0.5396  0.2174
 1159TIP3    H120664   1.068   2.289   6.748 -1.0456  0.6903 -0.0022
 1159TIP3    H220665   1.067   2.137   6.745  2.0730  0.4831  2.7039
 1160TIP3   OH220666   6.636   1.828   2.016  0.7802 -0.5355  0.7402
 1160TIP3    H120667   6.674   1.773   2.085  1.6256  0.2995  0.9667
 1160TIP3    H220668   6.650   1.779   1.935  1.1872 -0.8228  0.9846
 1161TIP3   OH220669   4.392   3.150   6.666  0.1357  0.2801  0.1539
 1161TIP3    H120670   4.313   3.123   6.619  0.1513  0.7225 -0.1314
 1161TIP3    H220671   4.412   3.076   6.724 -0.5417  0.2091  0.3023
 1162TIP3   OH220672   3.646   0.470   5.254  0.2332  0.0150 -0.5916
 1162TIP3    H120673   3.697   0.396   5.287 -1.2012 -0.7475 -0.0125
 1162TIP3    H220674   3.614   0.441   5.169 -1.0244 -0.4093 -0.0074
 1163TIP3   OH220675   5.141   0.486   5.630  0.3432 -0.0746  0.4231
 1163TIP3    H120676   5.146   0.579   5.650 -1.5241  0.5398 -1.5551
 1163TIP3    H220677   5.206   0.473   5.560 -0.4788  0.1243 -0.3994
 1164TIP3   OH220678   2.102   1.829   7.048  0.3280 -0.4388 -0.4426
 1164TIP3    H120679   2.140   1.906   7.005 -0.6339 -0.8710 -2.1853
 1164TIP3    H220680   2.157   1.757   7.020  0.9208 -0.4880  0.7776
 1165TIP3   OH220681   3.067   4.501   5.520 -0.4815  0.8585  0.6512
 1165TIP3    H120682   3.072   4.408   5.542 -0.3561  0.8210  0.4634
 1165TIP3    H220683   3.004   4.506   5.448  1.9723  0.4948 -1.6668
 1166TIP3   OH220684   2.895   2.028   0.078 -0.0890 -0.1673 -0.1901
 1166TIP3    H120685   2.947   2.021  -0.003  0.2329  1.3722 -0.1652
 1166TIP3    H220686   2.958   2.011   0.148  0.2375  0.8786 -0.1964
 1167TIP3   OH220687   2.786   5.524   6.567  0.6351  0.1777 -0.4523
 1167TIP3    H120688   2.815   5.550   6.479  1.6732  0.7604  0.0477
 1167TIP3    H220689   2.690   5.527   6.562  0.6763  2.3632 -0.9588
 1168TIP3   OH220690   5.903   0.473   7.342  0.1319 -0.5122 -0.5079
 1168TIP3    H120691   5.960   0.469   7.418  0.0901  2.0937 -0.2282
 1168TIP3    H220692   5.956   0.517   7.275 -0.5704 -0.7607 -1.2492
 1169TIP3   OH220693   0.431   2.259   1.108 -0.0850  0.7424  0.1255
 1169TIP3    H120694   0.375   2.330   1.076 -2.3655 -0.9304  0.1402
 1169TIP3    H220695   0.471   2.222   1.030  0.8063  1.7383  0.0831
 1170TIP3   OH220696   2.887   4.299   1.004 -0.3958 -0.6216 -0.2865
 1170TIP3    H120697   2.966   4.246   1.008 -0.2522 -0.6053 -1.9389
 1170TIP3    H220698   2.897   4.364   1.073  1.8805  0.4786 -1.5262
 1171TIP3   OH220699   5.914   3.001   1.300 -0.0499  0.3842 -0.5922
 1171TIP3    H120700   5.964   3.072   1.259  2.4045 -0.2730  0.9957
 1171TIP3    H220701   5.947   2.921   1.259 -0.5316 -0.0057 -0.2306
 1172TIP3   OH220702   3.520   1.195   7.605 -0.1127 -0.7198 -0.1719
 1172TIP3    H120703   3.449   1.190   7.669  1.0333  0.6235  1.2790
 1172TIP3    H220704   3.557   1.106   7.603 -0.7935 -1.0194  0.2695
 1173TIP3   OH220705   3.959   3.673   0.012  0.4357  0.6867 -0.3083
 1173TIP3    H120706   4.027   3.736  -0.011  1.9448 -0.5405  0.5418
 1173TIP3    H220707   3.948   3.683   0.107 -2.0747  2.2284 -0.6629
 1174TIP3   OH220708   4.535   2.699   0.718 -0.3605  0.3535  0.2268
 1174TIP3    H120709   4.615   2.747   0.699  1.8682 -2.2744  2.1321
 1174TIP3    H220710   4.493   2.749   0.787  0.0569  1.3332 -0.2119
 1175TIP3   OH220711   5.411   2.798   0.907 -0.2450  0.0912  0.2416
 1175TIP3    H120712   5.357   2.866   0.866  1.8255  1.4304 -0.4275
 1175TIP3    H220713   5.471   2.771   0.837  0.5259 -0.6927  1.1919
 1176TIP3   OH220714   1.209   5.965   0.725 -0.7598 -0.4772 -0.3970
 1176TIP3    H120715   1.127   5.951   0.773 -1.7902  0.6390 -1.7128
 1176TIP3    H220716   1.232   6.056   0.744 -0.0706 -0.6430 -0.4154
 1177TIP3   OH220717   1.616   5.229   0.631 -0.9146  0.1686  0.5870
 1177TIP3    H120718   1.585   5.142   0.656 -1.3400  0.9123  2.9412
 1177TIP3    H220719   1.709   5.217   0.612 -1.1682 -0.9323 -0.0651
 1178TIP3   OH220720   2.895   1.580   1.205 -0.4542  0.8423 -0.4930
 1178TIP3    H120721   2.919   1.669   1.179 -2.1801  1.3836 -0.2964
 1178TIP3    H220722   2.897   1.530   1.123  1.9931  0.6589 -0.3970
 1179TIP3   OH220723   5.780   5.194   0.482 -0.8097  0.2160 -0.1582
 1179TIP3    H120724   5.693   5.174   0.517 -0.6326  0.6982  0.5856
 1179TIP3    H220725   5.764   5.219   0.391 -1.3509 -0.4517 -0.2528
 1180TIP3   OH220726   6.532   1.432   1.648  0.0937  0.2116  0.1482
 1180TIP3    H120727   6.581   1.465   1.723  0.5944 -0.9233  0.3444
 1180TIP3    H220728   6.592   1.442   1.574  0.3382 -0.4476  0.2497
 1181TIP3   OH220729   5.466   2.432   0.953  0.0263 -0.6729 -0.0790
 1181TIP3    H120730   5.396   2.470   0.899  0.3179  0.9130  0.6152
 1181TIP3    H220731   5.437   2.445   1.043  0.6303 -1.1626  0.1927
 1182TIP3   OH220732   6.086   4.680   0.449 -0.3483  0.0045  0.7725
 1182TIP3    H120733   6.011   4.731   0.418  0.1881  0.8838  0.8828
 1182TIP3    H220734   6.143   4.673   0.373  0.3645  1.0466  1.1863
 1183TIP3   OH220735   5.147   3.684   1.652  0.6742 -0.4101 -0.6556
 1183TIP3    H120736   5.149   3.680   1.748  1.1510 -2.1038 -0.7146
 1183TIP3    H220737   5.057   3.708   1.631  0.9494  1.6057  0.2340
 1184TIP3   OH220738   4.375   2.963   5.544 -0.3081 -0.0338  0.2267
 1184TIP3    H120739   4.432   2.931   5.474  2.2243  0.3406  1.9960
 1184TIP3    H220740   4.295   2.991   5.498  1.0263 -0.2383 -2.4350
 1185TIP3   OH220741   0.532   2.712   1.885  0.5941 -0.2328 -0.0745
 1185TIP3    H120742   0.503   2.621   1.875 -0.7941  0.3407 -1.5827
 1185TIP3    H220743   0.488   2.760   1.815  0.8511  1.7205  1.0262
 1186TIP3   OH220744   2.567   3.477   0.626  0.3649 -0.3695  0.3548
 1186TIP3    H120745   2.644   3.420   0.637 -0.9176 -2.4101 -0.5319
 1186TIP3    H220746   2.570   3.503   0.534  0.3125  0.0241  0.4657
 1187TIP3   OH220747   2.857   0.194   7.507  0.2159  0.5440  0.2648
 1187TIP3    H120748   2.767   0.178   7.480  0.6748 -1.5783 -0.2233
 1187TIP3    H220749   2.850   0.227   7.596 -1.0524  0.1289  0.3396
 1188TIP3   OH220750   0.991   1.957   5.867 -0.2412  0.2300  0.4112
 1188TIP3    H120751   0.941   1.883   5.833 -0.1474  1.3547 -2.4694
 1188TIP3    H220752   1.033   1.996   5.790  0.1203  2.9790  1.8408
 1189TIP3   OH220753   2.456   0.581   6.302 -0.3957  0.1369  0.2663
 1189TIP3    H120754   2.366   0.591   6.270 -0.7533 -2.0570  0.4306
 1189TIP3    H220755   2.499   0.526   6.236  0.0970 -0.8577  1.3829
 1190TIP3   OH220756   5.425   0.209   6.323 -0.7815 -0.0676 -0.0542
 1190TIP3    H120757   5.376   0.165   6.254 -0.4095 -1.6786  0.6690
 1190TIP3    H220758   5.513   0.172   6.317 -0.5279  0.3750  0.7631
 1191TIP3   OH220759   1.620   6.082   7.461 -0.2857  0.3334 -0.6226
 1191TIP3    H120760   1.599   6.080   7.555  1.0004 -0.1274 -0.3329
 1191TIP3    H220761   1.623   6.176   7.440  1.3632  0.5090  0.2693
 1192TIP3   OH220762   0.711   2.969   7.276  0.3992 -0.3263  0.1172
 1192TIP3    H120763   0.725   2.921   7.195  0.0556  2.3605 -1.6692
 1192TIP3    H220764   0.623   3.005   7.268  1.1460  1.7878  0.6150
 1193TIP3   OH220765   0.722   5.583   1.664 -0.2763 -0.6608 -0.2122
 1193TIP3    H120766   0.751   5.501   1.623 -0.3576 -0.5819 -0.4339
 1193TIP3    H220767   0.643   5.559   1.713 -0.5631 -0.6311 -0.6482
 1194TIP3   OH220768   5.822   3.666   6.317 -0.1860 -0.5203  0.1786
 1194TIP3    H120769   5.837   3.592   6.259  0.8289  0.0958 -0.3782
 1194TIP3    H220770   5.898   3.723   6.304 -2.3329  2.1587 -1.7795
 1195TIP3   OH220771   1.644   3.291   5.883 -0.0841  0.0141  0.0611
 1195TIP3    H120772   1.608   3.297   5.794  0.7194 -0.9103 -0.3455
 1195TIP3    H220773   1.568   3.305   5.940 -0.9174 -0.8823 -0.7784
 1196TIP3   OH220774   6.123   3.408   0.340  0.3412  1.0419  0.2119
 1196TIP3    H120775   6.210   3.383   0.373  0.0657  0.1082  0.2745
 1196TIP3    H220776   6.062   3.353   0.390 -0.3085  1.8748  0.3531
 1197TIP3   OH220777   6.244   5.839   1.023  0.3537  0.4375  0.0351
 1197TIP3    H120778   6.276   5.926   1.046  0.6740 -0.0514  1.5454
 1197TIP3    H220779   6.248   5.836   0.927  0.8216  1.8884 -0.0074
 1198TIP3   OH220780   3.553   0.485   6.843 -0.2635  0.0167  0.0766
 1198TIP3    H120781   3.573   0.567   6.888  0.1091 -0.4188  0.7190
 1198TIP3    H220782   3.482   0.446   6.895  0.5292 -0.7415  0.6042
 1199TIP3   OH220783   0.625   3.415   6.906  0.0892 -0.4737 -0.5583
 1199TIP3    H120784   0.623   3.330   6.950  0.1921 -0.9183 -1.3959
 1199TIP3    H220785   0.599   3.396   6.816 -0.6468  0.5071 -0.5708
 1200TIP3   OH220786   2.383   1.530   6.039 -0.3392  0.0909  0.5767
 1200TIP3    H120787   2.363   1.581   5.960  1.2847  1.6415  1.0978
 1200TIP3    H220788   2.477   1.516   6.035 -0.5993 -2.1276  0.9632
 1201TIP3   OH220789   3.851   1.745   0.660  0.6548  0.6851  0.3178
 1201TIP3    H120790   3.905   1.713   0.732  0.9023  0.0184 -0.1504
 1201TIP3    H220791   3.912   1.792   0.603  0.8171 -0.3177 -0.3603
 1202TIP3   OH220792   5.127   1.239   1.570  1.0081 -0.0744 -0.7072
 1202TIP3    H120793   5.149   1.284   1.488 -1.4537  0.7013 -1.0222
 1202TIP3    H220794   5.045   1.279   1.598  1.1138 -1.2445  1.4781
 1203TIP3   OH220795   2.191   1.102   5.773  0.1897 -0.2022 -0.0985
 1203TIP3    H120796   2.178   1.197   5.767 -0.0447 -0.3004 -1.6067
 1203TIP3    H220797   2.216   1.076   5.684  1.8014 -1.3480  0.6343
 1204TIP3   OH220798   1.749   2.433   7.351  0.2851 -0.3194  0.1049
 1204TIP3    H120799   1.692   2.401   7.422  1.3197 -1.2855  0.5373
 1204TIP3    H220800   1.827   2.465   7.397 -0.6701  2.9330 -0.3014
 1205TIP3   OH220801   2.453   2.489   1.363 -0.1543 -0.2042 -0.0269
 1205TIP3    H120802   2.472   2.541   1.442 -0.4994 -0.5392  0.2784
 1205TIP3    H220803   2.393   2.543   1.313  0.5237  0.2704 -0.3490
 1206TIP3   OH220804   2.134   1.637   5.638  0.3062  0.1222 -0.1249
 1206TIP3    H120805   2.194   1.660   5.708  1.8323  1.3247 -1.7338
 1206TIP3    H220806   2.191   1.620   5.563 -1.3503  1.6080 -1.8160
 1207TIP3   OH220807   3.146   5.283   2.609 -0.4528  0.0924 -0.1125
 1207TIP3    H120808   3.214   5.244   2.553 -0.3008  1.8046 -1.2046
 1207TIP3    H220809   3.158   5.377   2.598 -1.6636  0.4486  1.3576
 1208TIP3   OH220810   2.590   2.243   5.666 -0.2561  0.3665 -0.6403
 1208TIP3    H120811   2.528   2.288   5.609 -1.1954  2.1566  1.6216
 1208TIP3    H220812   2.676   2.271   5.635 -0.7815  3.6371  0.3882
 1209TIP3   OH220813   4.794   2.445   0.154 -0.1464  0.5959  0.3583
 1209TIP3    H120814   4.786   2.350   0.167 -0.3331  0.6951  1.0502
 1209TIP3    H220815   4.853   2.454   0.080 -1.3198 -0.0821 -0.7000
 1210TIP3   OH220816   2.505   2.584   6.538 -0.4108 -0.3117  0.6753
 1210TIP3    H120817   2.446   2.624   6.602 -1.6424 -0.4250 -0.3531
 1210TIP3    H220818   2.517   2.494   6.569 -0.2777 -0.1047  1.2255
 1211TIP3   OH220819   1.868   6.077   6.622 -0.0208  0.0242 -0.5572
 1211TIP3    H120820   1.950   6.124   6.637 -0.1270  0.6776 -1.9290
 1211TIP3    H220821   1.892   5.984   6.633  0.6493  0.2639  0.1171
 1212TIP3   OH220822   5.252   4.714   6.986 -0.1735  0.1659  0.3891
 1212TIP3    H120823   5.293   4.631   6.960 -1.4126 -0.0357 -1.0910
 1212TIP3    H220824   5.276   4.725   7.078  0.5635 -1.4985  0.4316
 1213TIP3   OH220825   4.376   5.904   7.289  0.2084 -0.4951  0.0837
 1213TIP3    H120826   4.360   5.998   7.302  1.1712 -0.4627  1.1960
 1213TIP3    H220827   4.417   5.876   7.370  1.9876 -1.4063 -1.0825
 1214TIP3   OH220828   2.772   5.761   0.474  0.3112 -0.3142  0.3410
 1214TIP3    H120829   2.802   5.799   0.556 -1.4961  0.8838  0.5256
 1214TIP3    H220830   2.741   5.674   0.497  2.2926 -1.0530  0.3748
 1215TIP3   OH220831   3.618   4.458   7.083  0.8457  0.1727  0.1631
 1215TIP3    H120832   3.600   4.426   7.172  0.8101  0.1805  0.1587
 1215TIP3    H220833   3.648   4.548   7.097 -0.5178  0.6760  0.0765
 1216TIP3   OH220834   5.211   1.644   0.349  0.2257  0.1075 -0.0426
 1216TIP3    H120835   5.229   1.656   0.255 -0.0212 -1.0867 -0.2553
 1216TIP3    H220836   5.296   1.657   0.391  0.2607  1.0572 -0.3832
 1217TIP3   OH220837   3.478   6.232   7.278  0.0300  0.1481  0.0652
 1217TIP3    H120838   3.385   6.255   7.283 -0.4801 -1.8644  1.0408
 1217TIP3    H220839   3.497   6.189   7.361  1.1437 -1.7550 -1.0846
 1218TIP3   OH220840   2.311   5.893   6.746  0.2987  0.1730 -0.0170
 1218TIP3    H120841   2.301   5.818   6.689  0.3981 -0.3928  0.6967
 1218TIP3    H220842   2.403   5.892   6.772 -0.3893 -1.5323  2.7415
 1219TIP3   OH220843   5.813   5.522   1.610 -0.4951  0.0431 -0.0834
 1219TIP3    H120844   5.850   5.468   1.679  0.4482 -1.1001 -1.4136
 1219TIP3    H220845   5.836   5.476   1.529 -1.1235  1.5823 -1.1874
 1220TIP3   OH220846   3.567   3.081   7.238 -0.3806  0.0576 -0.3377
 1220TIP3    H120847   3.576   3.088   7.143  1.8770  1.7288 -0.0862
 1220TIP3    H220848   3.536   3.168   7.266 -1.0006 -0.4044  0.4913
 1221TIP3   OH220849   1.038   5.329   6.032 -0.0003  0.1471  0.0185
 1221TIP3    H120850   1.100   5.321   5.960  1.2452  0.6749  1.0086
 1221TIP3    H220851   0.953   5.311   5.991  0.8191 -1.0774 -1.2633
 1222TIP3   OH220852   2.433   0.633   6.845 -0.2226 -0.1773  0.6307
 1222TIP3    H120853   2.350   0.656   6.887 -0.5473 -0.9975  0.4640
 1222TIP3    H220854   2.498   0.640   6.915 -0.6388 -0.7809  1.0829
 1223TIP3   OH220855   3.396   0.034   7.060 -0.3528  0.4061  0.4691
 1223TIP3    H120856   3.391   0.129   7.061  0.9278  0.5149 -0.6455
 1223TIP3    H220857   3.353   0.007   7.141 -2.9597  1.7725 -0.3486
 1224TIP3   OH220858   3.169   2.488   5.790 -0.1607  0.2686 -0.3486
 1224TIP3    H120859   3.085   2.507   5.748  0.6744  0.3820 -2.0980
 1224TIP3    H220860   3.198   2.572   5.826 -0.3443  0.4640 -0.6494
 1225TIP3   OH220861   4.958   3.319   0.997  0.6710  0.4852  0.0695
 1225TIP3    H120862   4.990   3.278   1.077  1.4926  0.7855 -0.0968
 1225TIP3    H220863   4.863   3.310   1.002  0.7815 -3.3266 -0.9347
 1226TIP3   OH220864   5.341   5.850   7.016  0.0444  0.6764 -0.2910
 1226TIP3    H120865   5.313   5.771   7.064 -1.0438  2.0783  1.5239
 1226TIP3    H220866   5.260   5.882   6.975  0.6351  0.4567 -1.6825
 1227TIP3   OH220867   4.873   6.156   7.001 -0.0041 -0.2879 -0.4733
 1227TIP3    H120868   4.792   6.132   7.046  1.1206 -0.3843  1.6449
 1227TIP3    H220869   4.898   6.240   7.039  2.0654 -1.3371  0.7390
 1228TIP3   OH220870   0.950   4.932   0.284 -0.8137  0.4021  0.3058
 1228TIP3    H120871   1.022   4.872   0.266 -1.3163  0.0213 -0.4923
 1228TIP3    H220872   0.891   4.882   0.341 -0.4968  0.6813  0.8842
 1229TIP3   OH220873   2.292   1.724   5.214 -0.7030 -0.3005 -0.5329
 1229TIP3    H120874   2.239   1.800   5.239 -1.5280 -1.1723  0.4166
 1229TIP3    H220875   2.288   1.724   5.118 -2.4237 -0.3300 -0.4993
 1230TIP3   OH220876   5.232   1.322   0.899 -0.6327  0.2389  0.2003
 1230TIP3    H120877   5.157   1.350   0.846  0.9700  0.6078 -2.0503
 1230TIP3    H220878   5.206   1.237   0.934 -2.6155  0.9895  0.7034
 1231TIP3   OH220879   3.813   0.239   7.658 -0.6987 -0.1190 -0.6304
 1231TIP3    H120880   3.867   0.159   7.656 -0.4270  0.0295  0.2828
 1231TIP3    H220881   3.876   0.310   7.671 -1.0314  0.1366 -0.3919
 1232TIP3   OH220882   1.630   3.414   2.480 -0.3419  0.4351 -0.2932
 1232TIP3    H120883   1.654   3.366   2.559 -0.5682  1.0565  0.1633
 1232TIP3    H220884   1.627   3.506   2.508 -0.5086  0.6517 -1.0027
 1233TIP3   OH220885   1.102   1.988   6.325  0.0070 -0.2246 -0.2154
 1233TIP3    H120886   1.052   2.025   6.252  0.0061 -0.8594 -0.5367
 1233TIP3    H220887   1.130   1.902   6.295  1.6876  0.2803 -0.2244
 1234TIP3   OH220888   0.953   3.575   0.026 -0.1991 -0.6762 -0.3412
 1234TIP3    H120889   0.999   3.614   0.100 -2.1833  0.9796  0.1068
 1234TIP3    H220890   0.984   3.625  -0.050 -2.0867  1.3204  0.1237
 1235TIP3   OH220891   4.754   6.064   1.395  0.2348 -0.1383  0.1316
 1235TIP3    H120892   4.743   6.137   1.456  1.0459  0.1677 -0.0763
 1235TIP3    H220893   4.773   5.989   1.451  0.2340 -0.0128  0.3014
 1236TIP3   OH220894   3.895   5.310   0.784  0.3582 -0.1243 -0.1800
 1236TIP3    H120895   3.841   5.382   0.818 -0.8604 -0.2636 -1.6989
 1236TIP3    H220896   3.838   5.233   0.790  0.5331 -0.3622 -1.3939
 1237TIP3   OH220897   2.523   0.727   2.052 -0.5882 -0.0613  0.7805
 1237TIP3    H120898   2.612   0.698   2.035 -0.8958 -1.0079  0.7324
 1237TIP3    H220899   2.514   0.807   1.999 -0.2642 -0.8045 -0.4533
 1238TIP3   OH220900   0.188   0.651   0.727 -0.1409 -1.1562 -0.3211
 1238TIP3    H120901   0.269   0.626   0.771 -0.4613  0.5576  1.3520
 1238TIP3    H220902   0.124   0.661   0.797 -1.0501  0.3015 -1.2991
 1239TIP3   OH220903   1.020   5.401   1.673  0.5108 -0.3332  0.3649
 1239TIP3    H120904   1.048   5.310   1.681 -0.1937 -0.5017  1.0395
 1239TIP3    H220905   1.059   5.445   1.749  1.1022  0.0010 -0.1238
 1240TIP3   OH220906   0.830   6.595   0.778 -0.3429  0.3632  0.5043
 1240TIP3    H120907   0.881   6.580   0.698 -1.5271 -0.0037 -0.2207
 1240TIP3    H220908   0.827   6.509   0.821 -0.7063  0.2795  0.3170
 1241TIP3   OH220909   1.413   2.224   6.558  0.1304  0.3393  0.2342
 1241TIP3    H120910   1.502   2.247   6.582  0.8179 -0.1246 -1.6500
 1241TIP3    H220911   1.422   2.175   6.476 -1.8076 -0.3630  0.3785
 1242TIP3   OH220912   5.953   5.700   5.892  0.0373  0.6493 -0.2222
 1242TIP3    H120913   5.861   5.682   5.874 -0.1522  0.8968  0.4693
 1242TIP3    H220914   5.991   5.718   5.806 -0.4348 -0.0016 -0.5690
 1243TIP3   OH220915   4.237   2.233   0.589  0.1374  0.0978 -0.2247
 1243TIP3    H120916   4.274   2.197   0.670  0.3748 -0.1019 -0.4200
 1243TIP3    H220917   4.313   2.248   0.532 -0.0624 -0.1617 -0.5679
 1244TIP3   OH220918   2.788   2.459   6.674  0.2755 -0.3527 -0.0651
 1244TIP3    H120919   2.704   2.419   6.655  0.7966 -0.9288 -1.2725
 1244TIP3    H220920   2.836   2.392   6.724  0.2211 -0.2298  0.1552
 1245TIP3   OH220921   3.102   3.493   7.636 -0.6404  0.0348  0.7513
 1245TIP3    H120922   3.092   3.583   7.607 -0.9015 -1.1871 -3.6436
 1245TIP3    H220923   3.017   3.452   7.621 -0.2411 -1.2049  1.6467
 1246TIP3   OH220924   0.450   2.915   0.696  0.0603 -0.1887 -0.1524
 1246TIP3    H120925   0.356   2.931   0.682  0.0270 -0.6763 -0.4883
 1246TIP3    H220926   0.457   2.820   0.707  0.4795 -0.1234  0.1675
 1247TIP3   OH220927   5.397   0.425   6.489 -0.0161 -0.2013  0.4146
 1247TIP3    H120928   5.390   0.346   6.436 -1.0437  0.2110 -0.0791
 1247TIP3    H220929   5.487   0.423   6.523 -0.2027 -1.8833  0.8976
 1248TIP3   OH220930   4.140   0.604   1.867  0.4553 -0.0970  0.4875
 1248TIP3    H120931   4.128   0.596   1.962 -0.4671 -1.2314  0.2932
 1248TIP3    H220932   4.073   0.668   1.840  1.3887  1.0134  0.7139
 1249TIP3   OH220933   0.437   2.431   6.630 -0.2887  0.3987  0.0985
 1249TIP3    H120934   0.384   2.411   6.708  0.7326  0.2619  0.7783
 1249TIP3    H220935   0.501   2.496   6.661 -0.3158  0.8724 -0.8123
 1250TIP3   OH220936   1.318   1.311   6.599 -0.1931 -0.0881 -0.6398
 1250TIP3    H120937   1.292   1.261   6.522  0.3842 -0.8490 -0.3606
 1250TIP3    H220938   1.328   1.245   6.668 -1.5021  0.6599  0.3125
 1251TIP3   OH220939   1.297   1.963   7.072 -0.5061 -0.2111 -0.9641
 1251TIP3    H120940   1.325   2.000   6.989  2.6066 -0.4710 -0.1666
 1251TIP3    H220941   1.376   1.962   7.126 -2.2580 -0.5797  1.8230
 1252TIP3   OH220942   0.497   5.441   0.950  0.3614 -0.3911 -0.3356
 1252TIP3    H120943   0.493   5.413   1.042 -0.6594 -0.1667 -0.2989
 1252TIP3    H220944   0.411   5.479   0.933 -0.0859 -1.9550 -1.8627
 1253TIP3   OH220945   1.430   4.643   7.612  0.3151 -0.2970 -0.5087
 1253TIP3    H120946   1.349   4.601   7.583  0.3886 -1.0652  0.3481
 1253TIP3    H220947   1.401   4.720   7.660  0.0669 -0.8547  0.2439
 1254TIP3   OH220948   0.546   6.130  -0.003 -0.3417 -0.3582 -0.5999
 1254TIP3    H120949   0.555   6.108   0.090 -0.2338 -0.5552 -0.6555
 1254TIP3    H220950   0.452   6.126  -0.020 -0.3223 -0.8353 -0.6187
 1255TIP3   OH220951   3.334   0.776   0.891  0.3599  0.6521  0.5539
 1255TIP3    H120952   3.417   0.750   0.930 -0.5420 -0.2365  2.0039
 1255TIP3    H220953   3.275   0.703   0.910 -1.0523  1.7620  0.6427
 1256TIP3   OH220954   1.164   5.175   1.653 -0.4051 -0.4533 -0.8808
 1256TIP3    H120955   1.230   5.214   1.595 -0.0238 -0.8811 -0.7419
 1256TIP3    H220956   1.165   5.082   1.631  0.7668 -0.8854  0.7593
 1257TIP3   OH220957   2.550   4.145   6.760 -0.0131  0.2680 -0.1764
 1257TIP3    H120958   2.581   4.068   6.808  0.2401 -0.0355 -0.8190
 1257TIP3    H220959   2.624   4.206   6.760  0.0174  0.2313 -0.2544
 1258TIP3   OH220960   5.099   1.717   5.451 -0.5641  0.1083 -0.6001
 1258TIP3    H120961   5.159   1.668   5.395  1.5080 -0.8653  2.1987
 1258TIP3    H220962   5.157   1.772   5.504 -2.2032 -0.0425  1.4702
 1259TIP3   OH220963   6.592   4.823   6.784  0.1117  0.7737 -0.3690
 1259TIP3    H120964   6.598   4.739   6.829  1.7640  1.2030  0.3147
 1259TIP3    H220965   6.612   4.803   6.693  3.5525  0.7340  0.2555
 1260TIP3   OH220966   5.297   6.276   6.565  0.0225 -0.2867 -0.0267
 1260TIP3    H120967   5.251   6.197   6.538 -0.6164 -0.0954  0.4738
 1260TIP3    H220968   5.261   6.345   6.508  0.1030 -0.2371 -0.0181
 1261TIP3   OH220969   2.376   0.895   2.425 -0.5696 -0.0971  0.0367
 1261TIP3    H120970   2.402   0.946   2.348  0.9191  0.0288  0.5859
 1261TIP3    H220971   2.458   0.879   2.472 -1.3468 -0.8332  1.2015
 1262TIP3   OH220972   5.499   5.376   7.209 -0.4150 -0.3009 -0.5853
 1262TIP3    H120973   5.503   5.472   7.214 -1.0526 -0.2000 -1.7562
 1262TIP3    H220974   5.406   5.357   7.195 -0.0726 -0.9887 -2.0603
 1263TIP3   OH220975   2.075   1.624   0.784 -0.2772 -0.2219 -0.0805
 1263TIP3    H120976   2.148   1.603   0.726  0.3560  2.0087 -0.1658
 1263TIP3    H220977   2.030   1.540   0.796  2.1487 -1.6576 -0.1898
 1264TIP3   OH220978   2.127   6.046   7.522  0.3232  0.0544  0.0158
 1264TIP3    H120979   2.038   6.026   7.495  0.5164 -0.1007 -0.5278
 1264TIP3    H220980   2.179   6.036   7.442  0.5096  2.2437 -0.2114
 1265TIP3   OH220981   0.291   2.348   1.477  0.8175  0.6543 -0.3131
 1265TIP3    H120982   0.363   2.412   1.477  0.9555  0.5030 -0.8307
 1265TIP3    H220983   0.328   2.271   1.435  1.3171 -0.5575  2.1450
 1266TIP3   OH220984   0.689   1.643   2.758  0.0408 -0.4412  0.3021
 1266TIP3    H120985   0.715   1.680   2.842  0.7421 -0.1921 -0.0226
 1266TIP3    H220986   0.656   1.556   2.779  0.9287 -0.6734  0.7441
 1267TIP3   OH220987   4.163   2.164   2.007  0.3552 -0.0773  0.4373
 1267TIP3    H120988   4.093   2.222   2.037 -0.0882  1.2555 -2.7216
 1267TIP3    H220989   4.125   2.077   2.009  0.4977 -0.1867  3.7870
 1268TIP3   OH220990   4.619   4.496   1.577  0.0019 -0.0851  0.4592
 1268TIP3    H120991   4.562   4.565   1.612  0.1414  0.4511 -0.3231
 1268TIP3    H220992   4.577   4.415   1.604  0.8065  0.2517  2.9588
 1269TIP3   OH220993   3.948   6.210   1.683  0.4729 -0.1971 -0.1307
 1269TIP3    H120994   3.909   6.197   1.770  2.2143  0.1380  0.7357
 1269TIP3    H220995   4.028   6.260   1.700  1.1522 -0.6443 -1.8628
 1270TIP3   OH220996   5.038   6.075   1.741  0.5211  0.1886  0.0439
 1270TIP3    H120997   5.050   6.159   1.785 -0.6585  0.6020 -0.3671
 1270TIP3    H220998   5.077   6.011   1.800  1.7408  1.0509  0.2072
 1271TIP3   OH220999   2.741   2.658   5.905 -0.4991 -0.4086  0.0370
 1271TIP3    H121000   2.678   2.712   5.858 -0.0726  0.6175  0.6077
 1271TIP3    H221001   2.774   2.715   5.975  0.4373 -1.1985  0.2608
 1272TIP3   OH221002   0.641   2.424   0.665  0.1318 -0.4793 -0.5883
 1272TIP3    H121003   0.606   2.411   0.577 -0.5984 -3.0492  0.0015
 1272TIP3    H221004   0.668   2.337   0.693 -0.2933  0.1535  2.0235
 1273TIP3   OH221005   3.358   0.182   7.758 -0.4697  0.1321  0.1474
 1273TIP3    H121006   3.417   0.239   7.708  0.3036 -1.5393 -0.9525
 1273TIP3    H221007   3.293   0.153   7.694 -0.8960 -0.1535  0.7049
 1274TIP3   OH221008   3.141   6.000   1.236 -0.0911  0.2230 -0.2868
 1274TIP3    H121009   3.136   5.906   1.256 -0.7808 -0.0455 -1.5748
 1274TIP3    H221010   3.184   6.003   1.151 -0.3819  1.0547 -0.4109
 1275TIP3   OH221011   1.617   2.764   1.172 -0.1782 -0.2513  0.6034
 1275TIP3    H121012   1.571   2.847   1.181  1.5350  0.7320  0.8832
 1275TIP3    H221013   1.569   2.717   1.104 -2.5721 -0.0747  2.0554
 1276TIP3   OH221014   1.011   0.008   6.174  0.1338 -0.5865  0.3855
 1276TIP3    H121015   1.073   0.028   6.103  0.8078  0.4645  1.2272
 1276TIP3    H221016   1.067  -0.019   6.246 -0.2738  1.1687  1.4306
 1277TIP3   OH221017   5.648   6.074   0.120 -0.2561 -0.1597  0.2047
 1277TIP3    H121018   5.646   5.979   0.135 -0.6118 -0.2535 -0.4141
 1277TIP3    H221019   5.557   6.098   0.106  0.0310 -0.1371 -2.0585
 1278TIP3   OH221020   3.936   0.854   0.165 -1.0100 -0.4619 -0.3685
 1278TIP3    H121021   3.995   0.889   0.231 -0.1994 -1.9109 -0.2851
 1278TIP3    H221022   3.866   0.811   0.214 -2.1240  1.1050 -0.4687
 1279TIP3   OH221023   1.672   4.574   7.690 -0.0810 -0.3573 -0.1368
 1279TIP3    H121024   1.676   4.642   7.758 -1.3822 -0.0074 -0.3874
 1279TIP3    H221025   1.584   4.581   7.654 -0.2673 -2.2235 -0.1428
 1280TIP3   OH221026   2.477   4.003   7.486  0.1395  0.3044  0.2026
 1280TIP3    H121027   2.396   4.054   7.486  0.3910  0.7110 -0.5135
 1280TIP3    H221028   2.539   4.056   7.437  0.1289 -1.1334 -1.4676
 1281TIP3   OH221029   6.014   4.594   0.912 -0.1304 -0.4183  0.0770
 1281TIP3    H121030   5.956   4.618   0.839 -0.6909  0.0331  0.6635
 1281TIP3    H221031   6.007   4.498   0.917 -1.4904 -0.3105  0.6682
 1282TIP3   OH221032   6.302   0.922   5.929  0.5441  0.4429 -0.2926
 1282TIP3    H121033   6.318   0.878   6.013  0.4962 -0.1300 -0.5792
 1282TIP3    H221034   6.237   0.989   5.949 -0.4410 -0.5450 -0.1236
 1283TIP3   OH221035   3.870   3.775   7.326  0.1587  0.2308  0.1543
 1283TIP3    H121036   3.886   3.700   7.382  0.4168  0.6026  0.5851
 1283TIP3    H221037   3.951   3.786   7.276 -0.3031 -0.5098 -0.7973
 1284TIP3   OH221038   3.780   1.151   5.802  0.0726 -0.2814 -0.2962
 1284TIP3    H121039   3.866   1.130   5.838  0.3275  0.8149 -0.2132
 1284TIP3    H221040   3.719   1.094   5.848  0.5411  0.2220  0.9921
 1285TIP3   OH221041   2.818   1.030   6.836 -0.0049  0.0996 -0.1071
 1285TIP3    H121042   2.737   1.003   6.879 -1.1485  0.3522 -1.9638
 1285TIP3    H221043   2.825   0.972   6.760  1.0117  0.7599 -0.5411
 1286TIP3   OH221044   2.081   3.697   2.034  0.0227 -0.1257  0.0694
 1286TIP3    H121045   2.079   3.671   2.126  0.0400 -1.2900 -0.2407
 1286TIP3    H221046   2.175   3.704   2.013  0.0373 -0.7148 -0.0792
 1287TIP3   OH221047   0.485   1.411   2.061  0.0107  0.5756 -0.3370
 1287TIP3    H121048   0.533   1.330   2.045  0.2610  0.5793  0.3456
 1287TIP3    H221049   0.400   1.398   2.019  0.4009  0.3484 -1.0717
 1288TIP3   OH221050   5.753   1.011   6.821 -0.1067 -0.0724  0.2910
 1288TIP3    H121051   5.833   1.054   6.851  0.3878 -0.5137 -0.3466
 1288TIP3    H221052   5.784   0.930   6.780 -0.5161  1.3592 -3.1699
 1289TIP3   OH221053   1.727   3.938   0.186 -0.6259 -0.1171  0.3441
 1289TIP3    H121054   1.735   4.028   0.155  0.0370 -0.5204 -0.7016
 1289TIP3    H221055   1.650   3.939   0.244 -2.3841  0.5396 -1.8389
 1290TIP3   OH221056   4.785   3.158   1.220 -0.5265 -0.0207  0.3623
 1290TIP3    H121057   4.825   3.138   1.304  1.2230  2.4252  0.2172
 1290TIP3    H221058   4.836   3.108   1.156 -0.0736  0.2365  0.5191
 1291TIP3   OH221059   2.750   6.435   6.952 -0.1844 -0.0624  0.5004
 1291TIP3    H121060   2.828   6.438   6.897 -0.9716 -1.5296 -0.7964
 1291TIP3    H221061   2.782   6.408   7.038  0.5672 -3.3222 -0.6382
 1292TIP3   OH221062   3.862   0.392   6.151 -0.0567 -0.2523  0.5947
 1292TIP3    H121063   3.933   0.327   6.149 -0.3278 -0.5710  1.1927
 1292TIP3    H221064   3.857   0.423   6.060  0.0447 -1.1090  0.2777
 1293TIP3   OH221065   2.753   5.044   1.037  0.1671 -0.0372 -0.3979
 1293TIP3    H121066   2.790   4.990   1.106  2.3889  0.5904 -1.0193
 1293TIP3    H221067   2.802   5.126   1.042 -0.0780  0.2640 -2.2891
 1294TIP3   OH221068   4.923   2.093   1.519 -0.1350  0.0532  0.2877
 1294TIP3    H121069   4.994   2.039   1.484  0.2111 -0.0740  1.1749
 1294TIP3    H221070   4.845   2.064   1.471  0.6622  1.4247 -2.0225
 1295TIP3   OH221071   1.731   2.059   4.556  0.1891 -0.4379  0.3801
 1295TIP3    H121072   1.759   2.148   4.577 -0.5677  0.7000 -2.7542
 1295TIP3    H221073   1.713   2.018   4.640  1.4511  2.0618  1.9787
 1296TIP3   OH221074   3.345   2.868   1.984 -0.5002  0.3695  0.2112
 1296TIP3    H121075   3.251   2.852   1.976 -0.3907  0.1212 -0.7783
 1296TIP3    H221076   3.352   2.952   2.029 -1.1672 -0.1972  1.4040
 1297TIP3   OH221077   0.729   0.201   7.547  0.3519 -0.4075 -0.3802
 1297TIP3    H121078   0.777   0.186   7.466  1.4230  0.8494 -0.0120
 1297TIP3    H221079   0.785   0.164   7.615 -0.9201 -2.2055 -0.2431
 1298TIP3   OH221080   2.517   1.123   1.249  0.0032 -0.1001 -0.1509
 1298TIP3    H121081   2.597   1.073   1.261  0.0978 -0.1706 -1.0003
 1298TIP3    H221082   2.543   1.200   1.200 -0.6766 -0.9119 -1.8890
 1299TIP3   OH221083   3.496   4.334   1.449 -0.0102 -0.0137  0.6182
 1299TIP3    H121084   3.589   4.322   1.431  0.7149  2.2745  2.3823
 1299TIP3    H221085   3.479   4.283   1.528  0.4350  1.5855  1.7960
 1300TIP3   OH221086   6.515   0.260   0.470  0.3971 -0.2041  0.1424
 1300TIP3    H121087   6.422   0.246   0.488 -0.2139  0.6108 -2.0213
 1300TIP3    H221088   6.552   0.172   0.465 -0.4533 -0.5726  0.1461
 1301TIP3   OH221089   3.038   0.110   0.086 -0.3536  0.2321  0.3993
 1301TIP3    H121090   3.025   0.205   0.088  1.4150  0.5102  1.1259
 1301TIP3    H221091   2.951   0.073   0.103 -1.2730  1.6734 -0.9179
 1302TIP3   OH221092   2.047   2.021   4.377  0.7131  0.0809  0.3207
 1302TIP3    H121093   2.027   1.991   4.466 -0.3038 -1.5814 -0.4201
 1302TIP3    H221094   2.116   1.963   4.347 -0.1881 -0.5579 -0.5880
 1303TIP3   OH221095   6.337   4.616   7.508  0.1234 -0.1906 -0.4667
 1303TIP3    H121096   6.243   4.596   7.501  0.4685 -1.6391 -1.4657
 1303TIP3    H221097   6.356   4.665   7.428  0.0476  0.9066  0.1782
 1304TIP3   OH221098   6.167   5.101   1.298 -0.4391 -0.3073  0.1218
 1304TIP3    H121099   6.105   5.118   1.226 -1.2651 -1.2162  0.6029
 1304TIP3    H221100   6.120   5.043   1.357  0.7798 -0.7778  0.6569
 1305TIP3   OH221101   2.725   2.036   4.868  0.6091 -0.0339 -0.1747
 1305TIP3    H121102   2.730   1.948   4.905 -0.2098  0.5549  1.4354
 1305TIP3    H221103   2.736   2.023   4.773  0.2123 -1.8907 -0.0053
 1306TIP3   OH221104   1.752   5.350   6.448 -0.2757  0.6104  0.7104
 1306TIP3    H121105   1.714   5.438   6.443 -1.8916 -0.0937 -0.4530
 1306TIP3    H221106   1.781   5.331   6.359 -0.6064 -0.2831  0.7773
 1307TIP3   OH221107   6.460   5.052   6.320 -0.5329 -0.2277 -0.5235
 1307TIP3    H121108   6.527   5.073   6.386  0.1624 -0.8715 -1.0167
 1307TIP3    H221109   6.406   5.131   6.316  0.2343  0.3315 -0.1587
 1308TIP3   OH221110   2.976   6.566   1.176  0.9051 -0.0895 -0.3658
 1308TIP3    H121111   3.052   6.621   1.156  1.1629 -0.3152 -0.0147
 1308TIP3    H221112   2.987   6.544   1.269  1.0343 -1.0872 -0.6102
 1309TIP3   OH221113   1.160   1.135   5.655  0.8113  0.4062 -0.4965
 1309TIP3    H121114   1.103   1.100   5.724 -0.7906  0.6359 -1.6719
 1309TIP3    H221115   1.101   1.179   5.594  2.1593  0.0579 -2.1300
 1310TIP3   OH221116   2.210   2.499   1.759 -0.2125  0.3206 -0.1335
 1310TIP3    H121117   2.158   2.509   1.679  0.6464 -1.5582 -0.9986
 1310TIP3    H221118   2.259   2.418   1.746  0.5541  0.3661  1.9931
 1311TIP3   OH221119   0.787   2.614   0.042 -0.3233 -0.1176 -0.3157
 1311TIP3    H121120   0.748   2.632   0.127  2.6036  0.9950  0.9477
 1311TIP3    H221121   0.738   2.668  -0.020 -2.8135 -1.3141  0.4730
 1312TIP3   OH221122   6.154   1.538   0.973 -0.1547 -0.1628  0.4630
 1312TIP3    H121123   6.203   1.573   0.899 -0.8863 -0.6579 -0.2690
 1312TIP3    H221124   6.063   1.536   0.943 -0.8283  1.7721  2.1654
 1313TIP3   OH221125   1.940   3.400   2.302  0.0220 -0.0163  0.0410
 1313TIP3    H121126   1.944   3.398   2.206  2.1976 -0.5339  0.0888
 1313TIP3    H221127   1.917   3.311   2.327  0.0514 -0.0333  0.0081
 1314TIP3   OH221128   2.959   1.513   5.590  0.3330 -0.1543 -0.2988
 1314TIP3    H121129   2.927   1.560   5.513  0.2322 -0.5307 -0.4891
 1314TIP3    H221130   3.027   1.455   5.557 -0.5824 -1.2540 -0.3291
 1315TIP3   OH221131   2.554   2.326   6.620 -0.5036 -0.3440 -0.5813
 1315TIP3    H121132   2.482   2.284   6.572  2.1753 -2.7374 -2.9217
 1315TIP3    H221133   2.576   2.263   6.689 -0.1103 -0.0363 -0.4216
 1316TIP3   OH221134   0.718   3.219   7.112  0.2441 -0.0503 -0.2117
 1316TIP3    H121135   0.691   3.285   7.175  2.1218  0.1606  0.4402
 1316TIP3    H221136   0.722   3.138   7.163  0.0781 -0.2285 -0.4803
 1317TIP3   OH221137   2.727   1.257   6.704 -0.2007 -0.4447 -0.2031
 1317TIP3    H121138   2.784   1.204   6.761 -1.6380 -0.5684  1.1678
 1317TIP3    H221139   2.720   1.205   6.624  1.8748 -0.2649 -0.5753
 1318TIP3   OH221140   0.946   1.269   0.040 -0.0132 -0.4548 -0.5024
 1318TIP3    H121141   0.943   1.306   0.128  2.1370 -0.2303 -0.4709
 1318TIP3    H221142   0.886   1.322  -0.011 -1.0325 -0.3755  0.7432
 1319TIP3   OH221143   2.368   6.538   1.005  0.0347 -0.4396  0.2384
 1319TIP3    H121144   2.315   6.512   0.930 -0.4005  2.6705 -0.6966
 1319TIP3    H221145   2.304   6.554   1.075  0.2928 -1.7475  0.8008
 1320TIP3   OH221146   3.976   1.613   1.369  0.4853 -0.4244 -0.4705
 1320TIP3    H121147   3.982   1.612   1.465 -1.5009  0.2816 -0.2808
 1320TIP3    H221148   4.022   1.693   1.343  0.2283 -0.1177 -0.0101
 1321TIP3   OH221149   1.793   2.297   6.960  0.4731 -0.6978  0.4549
 1321TIP3    H121150   1.839   2.366   7.009 -2.0370  1.0183  0.5746
 1321TIP3    H221151   1.755   2.241   7.027  2.8230 -2.5923  0.3643
 1322TIP3   OH221152   3.229   6.223   1.331  0.2870  0.1499 -0.1740
 1322TIP3    H121153   3.323   6.226   1.349  0.1658 -2.7314  1.5276
 1322TIP3    H221154   3.214   6.135   1.295 -1.8589  0.2594  0.3121
 1323TIP3   OH221155   5.754   3.524   0.478 -0.0905 -0.1822 -0.2183
 1323TIP3    H121156   5.720   3.532   0.389 -0.6368 -0.4658 -0.0388
 1323TIP3    H221157   5.699   3.583   0.529  0.6901  0.5415 -0.1860
 1324TIP3   OH221158   0.370   4.592   1.196  0.2654  0.2703  0.0138
 1324TIP3    H121159   0.413   4.604   1.111  0.0777  0.4799 -0.0537
 1324TIP3    H221160   0.341   4.501   1.197 -0.0859  0.3784 -0.3125
 1325TIP3   OH221161   3.480   4.341   0.605  0.4760 -0.8173 -0.1612
 1325TIP3    H121162   3.492   4.286   0.528  1.3332 -0.8576 -0.0082
 1325TIP3    H221163   3.566   4.343   0.647  0.3771  0.4056 -0.0017
 1326TIP3   OH221164   1.493   5.796   1.788  0.3536  0.4471  0.1987
 1326TIP3    H121165   1.423   5.759   1.734 -0.1487  0.5209  0.7907
 1326TIP3    H221166   1.504   5.886   1.756  1.4940 -0.1286 -1.1628
 1327TIP3   OH221167   4.954   2.458   0.792 -0.7956 -0.1311 -0.1217
 1327TIP3    H121168   4.864   2.485   0.808 -0.3043  1.4304  0.1530
 1327TIP3    H221169   4.946   2.367   0.762 -2.6281  0.6047 -2.1441
 1328TIP3   OH221170   1.407   0.206   6.240  0.3660 -0.3675 -0.5988
 1328TIP3    H121171   1.470   0.215   6.168 -1.0540 -0.3640 -1.8828
 1328TIP3    H221172   1.410   0.290   6.286 -0.4606  0.5588 -2.1570
 1329TIP3   OH221173   4.719   2.516   6.558 -0.0486  0.5191 -0.0464
 1329TIP3    H121174   4.671   2.592   6.590 -2.3767 -1.4450  1.5293
 1329TIP3    H221175   4.773   2.489   6.632  0.3086  0.3014 -0.3839
 1330TIP3   OH221176   1.221   5.107   0.007  0.7000 -0.4092  0.3898
 1330TIP3    H121177   1.217   5.182   0.066  0.5673 -0.0974 -0.0110
 1330TIP3    H221178   1.129   5.087  -0.013  0.7715  0.2574 -0.6736
 1331TIP3   OH221179   6.346   0.451   1.391  0.6023  0.5339 -0.2807
 1331TIP3    H121180   6.431   0.463   1.434  1.1827 -1.3932 -0.7864
 1331TIP3    H221181   6.304   0.379   1.439  1.0517 -1.3318 -2.4734
 1332TIP3   OH221182   1.814   3.935   6.570  0.0207 -0.0130  0.4314
 1332TIP3    H121183   1.756   4.011   6.582 -1.9049 -1.5900  1.9763
 1332TIP3    H221184   1.876   3.940   6.642  1.7669  1.5523 -1.0902
 1333TIP3   OH221185   0.401   4.286   0.823 -0.6908 -0.2649 -0.0482
 1333TIP3    H121186   0.472   4.222   0.832 -0.4656 -0.2198 -1.3645
 1333TIP3    H221187   0.444   4.371   0.827 -1.0806 -0.1060  2.5485
 1334TIP3   OH221188   5.037   0.450   0.500  0.1407  0.4895  0.5749
 1334TIP3    H121189   4.960   0.403   0.467  0.8158  0.7434 -1.5109
 1334TIP3    H221190   5.044   0.423   0.592 -0.0742 -2.7729 -0.2499
 1335TIP3   OH221191   1.368   3.051   6.424 -0.0665  0.0767  0.1734
 1335TIP3    H121192   1.302   3.112   6.391  0.5009 -0.4095 -2.0346
 1335TIP3    H221193   1.345   2.967   6.385  0.3023 -0.7222  1.5957
 1336TIP3   OH221194   6.261   4.632   6.681  0.8180  0.0493 -0.2840
 1336TIP3    H121195   6.235   4.547   6.717 -0.6205  0.2208 -0.8919
 1336TIP3    H221196   6.319   4.610   6.608 -0.1025 -0.4354 -0.8769
 1337TIP3   OH221197   0.433   0.558   1.772  0.6935 -0.3528 -0.3219
 1337TIP3    H121198   0.346   0.518   1.770  1.2032 -1.6932  1.4509
 1337TIP3    H221199   0.492   0.488   1.743  1.4716 -0.5098  1.5367
 1338TIP3   OH221200   4.445   4.791   0.705  0.0387 -0.4843 -0.7615
 1338TIP3    H121201   4.488   4.729   0.765  0.4187 -0.8759 -1.4345
 1338TIP3    H221202   4.360   4.809   0.747 -0.4477 -2.1246 -0.9707
 1339TIP3   OH221203   2.850   2.654   1.347  0.0170 -0.5008 -0.3728
 1339TIP3    H121204   2.879   2.622   1.261 -1.0993  0.4623 -1.1381
 1339TIP3    H221205   2.814   2.576   1.391  1.0093 -1.0939 -0.5786
 1340TIP3   OH221206   6.384   3.498   6.427 -0.1316  0.3171  0.2664
 1340TIP3    H121207   6.360   3.528   6.339 -0.3936 -0.1163  0.1824
 1340TIP3    H221208   6.318   3.537   6.484  0.1590  0.7639  0.2975
 1341TIP3   OH221209   1.474   0.762   0.866 -0.2307 -0.5973  0.1485
 1341TIP3    H121210   1.557   0.804   0.845 -1.1166  0.5250 -1.3271
 1341TIP3    H221211   1.417   0.784   0.793 -1.6086 -1.9996  0.7510
 1342TIP3   OH221212   4.763   0.727   5.928  0.0258  0.1478 -0.1771
 1342TIP3    H121213   4.829   0.788   5.961 -0.7410 -0.3299  2.4750
 1342TIP3    H221214   4.805   0.641   5.934 -0.7080 -0.1374  1.3427
 1343TIP3   OH221215   3.325   0.916   5.829 -0.3673  0.1593  0.1904
 1343TIP3    H121216   3.282   0.928   5.744 -0.4383 -1.5055 -0.0448
 1343TIP3    H221217   3.372   0.998   5.844 -1.6647  1.1013 -0.6840
 1344TIP3   OH221218   0.647   6.256   2.567 -0.7491 -0.0155  0.2571
 1344TIP3    H121219   0.660   6.339   2.614 -4.4786  0.7280  0.2612
 1344TIP3    H221220   0.570   6.217   2.609  0.5520 -3.2641 -0.1384
 1345TIP3   OH221221   1.645   2.375   5.340  0.5256  0.6362 -0.2964
 1345TIP3    H121222   1.565   2.323   5.346  0.0531  1.4174  0.3732
 1345TIP3    H221223   1.715   2.315   5.366 -0.0158  0.3353  0.5206
 1346TIP3   OH221224   1.492   1.900   6.424  0.2543  0.2007  0.0500
 1346TIP3    H121225   1.522   1.903   6.333 -0.5078 -0.0218 -0.2129
 1346TIP3    H221226   1.409   1.948   6.424  1.1991  1.9069  1.0275
 1347TIP3   OH221227   1.302   6.181   0.129 -0.1013  0.1213 -0.8629
 1347TIP3    H121228   1.387   6.139   0.121 -0.0378 -0.1663  0.9641
 1347TIP3    H221229   1.316   6.271   0.100  0.9881  0.2430 -0.0145
 1348TIP3   OH221230   2.009   1.338   6.907  0.2711 -0.4752 -0.6459
 1348TIP3    H121231   2.003   1.414   6.965 -0.0404 -0.7356 -0.3372
 1348TIP3    H221232   2.089   1.293   6.935 -0.4880 -1.2423  0.3724
 1349TIP3   OH221233   3.922   0.456   6.922 -0.7866 -0.6559 -0.3428
 1349TIP3    H121234   3.937   0.438   6.830 -0.4738 -1.1248 -0.2026
 1349TIP3    H221235   3.896   0.371   6.959 -0.9244 -0.4675 -0.0031
 1350TIP3   OH221236   1.119   3.940   6.052 -0.3740 -0.7471 -0.3300
 1350TIP3    H121237   1.108   4.033   6.030 -1.4381 -0.5611  0.8627
 1350TIP3    H221238   1.202   3.936   6.099 -1.7069  0.1862  2.3151
 1351TIP3   OH221239   1.243   2.015   0.613  0.3658 -0.8958  0.6748
 1351TIP3    H121240   1.185   1.946   0.645 -0.0845 -0.5598  0.5939
 1351TIP3    H221241   1.270   1.985   0.526  0.3997 -1.1006  0.7545
 1352TIP3   OH221242   3.121   0.552   1.290  0.3637 -0.0917 -0.2814
 1352TIP3    H121243   3.046   0.513   1.246 -0.9662  2.1452 -0.1485
 1352TIP3    H221244   3.137   0.633   1.242  3.8151 -1.2492 -1.3603
 1353TIP3   OH221245   4.231   6.090   6.796 -0.3704  0.5826  0.0329
 1353TIP3    H121246   4.211   6.172   6.840  0.1241  0.3285  0.7456
 1353TIP3    H221247   4.285   6.041   6.858  0.0814  0.0868 -0.7201
 1354TIP3   OH221248   1.496   0.309   1.106  0.1150 -0.1816  0.1117
 1354TIP3    H121249   1.585   0.305   1.072  0.4417  0.7722  0.7898
 1354TIP3    H221250   1.500   0.376   1.174 -1.0301 -0.4238  0.4384
 1355TIP3   OH221251   0.983   0.002   2.193 -0.0851  0.2628  0.2035
 1355TIP3    H121252   1.079   0.003   2.201  0.2705 -1.5696 -2.6480
 1355TIP3    H221253   0.963   0.074   2.133 -0.3888 -0.0571 -0.0794
 1356TIP3   OH221254   5.758   1.587   7.390  0.8272 -0.1574 -0.0291
 1356TIP3    H121255   5.789   1.665   7.345  2.0300 -0.7619 -0.2779
 1356TIP3    H221256   5.694   1.620   7.454  0.5155  0.9027 -0.8643
 1357TIP3   OH221257   1.063   3.293   6.106 -0.0014 -1.1576 -0.8012
 1357TIP3    H121258   1.111   3.371   6.078 -2.3928  0.9973  0.6504
 1357TIP3    H221259   0.993   3.283   6.043 -0.8028 -0.9845  0.0401
 1358TIP3   OH221260   5.725   4.685   1.505  0.3062 -0.0897  0.2627
 1358TIP3    H121261   5.723   4.758   1.566 -0.0037 -0.8716  1.2170
 1358TIP3    H221262   5.748   4.724   1.421  0.0547  1.1091  0.7338
 1359TIP3   OH221263   4.614   5.747   1.657  0.3177 -0.3830  0.3086
 1359TIP3    H121264   4.550   5.797   1.606  0.8995 -0.8551 -0.9361
 1359TIP3    H221265   4.698   5.787   1.634  0.6241 -0.8684  0.5779
 1360TIP3   OH221266   5.282   6.139   7.103  0.0395  0.3974  0.1512
 1360TIP3    H121267   5.303   6.070   7.040 -1.5460 -0.4512  0.5072
 1360TIP3    H221268   5.283   6.096   7.188 -0.0453  1.0146  0.4695
 1361TIP3   OH221269   6.016   2.728   2.463  0.2888 -0.1971  0.0461
 1361TIP3    H121270   5.924   2.700   2.463 -0.4319  1.9438 -0.7224
 1361TIP3    H221271   6.053   2.691   2.543 -0.5405 -3.1272 -0.8167
 1362TIP3   OH221272   2.217   5.946   0.426  0.1572  0.0651  0.2323
 1362TIP3    H121273   2.131   5.916   0.455 -0.4025  1.9242  0.6709
 1362TIP3    H221274   2.278   5.913   0.493 -0.2400 -0.9814  0.0966
 1363TIP3   OH221275   4.712   4.588   0.112 -0.2370  0.0558 -0.0690
 1363TIP3    H121276   4.763   4.555   0.186 -0.9359 -1.0173 -0.0518
 1363TIP3    H221277   4.713   4.517   0.048  1.3641  1.3962 -1.6457
 1364TIP3   OH221278   0.424   1.183   1.756 -0.4526 -0.2187  0.1915
 1364TIP3    H121279   0.454   1.183   1.847  0.0039 -1.3408  0.0503
 1364TIP3    H221280   0.464   1.106   1.717 -2.0456 -0.7325 -0.5052
 1365TIP3   OH221281   1.274   4.256   1.378 -0.0876 -0.1741 -0.5927
 1365TIP3    H121282   1.288   4.322   1.446  1.1712 -1.1649  0.1558
 1365TIP3    H221283   1.217   4.191   1.419 -1.1671  0.3097 -1.2653
 1366TIP3   OH221284   2.061   2.148   6.876  0.2007  0.6100 -0.1688
 1366TIP3    H121285   2.150   2.123   6.901  0.3452  2.0456  0.8407
 1366TIP3    H221286   2.050   2.236   6.910 -0.6308  1.5973 -2.7405
 1367TIP3   OH221287   3.808   6.213   2.126  0.0775 -0.4568  0.1314
 1367TIP3    H121288   3.797   6.194   2.033  0.1615 -0.9945  0.2333
 1367TIP3    H221289   3.902   6.204   2.142 -0.0180 -0.9844  0.4052
 1368TIP3   OH221290   5.633   2.504   0.548 -0.4043  0.1948  0.0259
 1368TIP3    H121291   5.623   2.418   0.590  1.2241 -0.8013 -1.5095
 1368TIP3    H221292   5.708   2.543   0.592 -1.0274  0.7814  0.5914
 1369TIP3   OH221293   6.404   2.269   1.323 -0.5392  0.8655  0.3743
 1369TIP3    H121294   6.400   2.232   1.235 -0.6176  1.3584  0.1635
 1369TIP3    H221295   6.497   2.288   1.337 -0.3432 -0.4058  0.9161
 1370TIP3   OH221296   5.256   3.790   7.725  0.5208  0.1713  0.4079
 1370TIP3    H121297   5.216   3.871   7.693  2.8343  1.5611  0.8821
 1370TIP3    H221298   5.348   3.796   7.700  1.4190 -0.9049  3.0925
 1371TIP3   OH221299   2.949   0.781   1.455  0.0131  0.1509 -0.7556
 1371TIP3    H121300   2.981   0.769   1.365 -0.1404  1.2893 -0.9707
 1371TIP3    H221301   2.866   0.733   1.457 -0.4721  0.9334 -1.5194
 1372TIP3   OH221302   5.893   0.129   0.903 -0.6790 -0.3561 -0.0525
 1372TIP3    H121303   5.899   0.062   0.971  0.9924  0.1265  0.3084
 1372TIP3    H221304   5.914   0.082   0.822 -1.5821 -0.6908 -0.1088
 1373TIP3   OH221305   0.555   4.550   7.053  0.2013 -0.5955 -0.0100
 1373TIP3    H121306   0.481   4.582   7.104  2.1221  0.3147  2.3831
 1373TIP3    H221307   0.555   4.605   6.975  0.6633  2.2690  1.8417
 1374TIP3   OH221308   5.708   2.678   0.188 -0.1134 -0.0262  0.5683
 1374TIP3    H121309   5.712   2.582   0.178 -0.5657  0.0042  0.0597
 1374TIP3    H221310   5.757   2.712   0.113 -2.0552  0.1744 -0.6660
 1375TIP3   OH221311   5.605   5.943   0.688 -0.7948 -0.1091  0.1858
 1375TIP3    H121312   5.580   5.988   0.607 -1.3567 -0.2250  0.2871
 1375TIP3    H221313   5.567   5.996   0.758 -0.5825 -0.1796  0.3545
 1376TIP3   OH221314   0.369   1.093   0.059  0.4496 -0.3304  0.2708
 1376TIP3    H121315   0.391   1.006   0.026  0.2319 -0.9160  1.5849
 1376TIP3    H221316   0.302   1.126  -0.001  1.6413 -0.3933 -1.1529
 1377TIP3   OH221317   4.041   0.061   6.419 -0.3434 -0.2559  0.5052
 1377TIP3    H121318   4.089   0.028   6.343  1.5521 -0.5029  1.7372
 1377TIP3    H221319   4.032  -0.014   6.477  0.5682  0.4578  1.6340
 1378TIP3   OH221320   0.094   3.969   0.952 -0.0314 -0.7310  0.3524
 1378TIP3    H121321   0.034   3.930   0.888  0.0805 -0.6023  0.1682
 1378TIP3    H221322   0.153   4.023   0.899  0.2476 -0.8580  0.5308
 1379TIP3   OH221323   0.844   1.308   6.173 -0.1083  0.0544 -0.2350
 1379TIP3    H121324   0.856   1.240   6.107 -1.0745  0.9104 -1.3305
 1379TIP3    H221325   0.755   1.293   6.206 -0.1051  0.4167 -0.0610
 1380TIP3   OH221326   6.310   6.343   1.899  0.3680  0.1192 -0.2095
 1380TIP3    H121327   6.365   6.366   1.974 -0.5549 -0.7231  0.7520
 1380TIP3    H221328   6.371   6.306   1.835  0.9832 -0.5459  0.7307
 1381TIP3   OH221329   1.230   1.798   1.972  0.2124  0.5309  0.5252
 1381TIP3    H121330   1.274   1.883   1.981  1.3583  0.1364 -0.8814
 1381TIP3    H221331   1.256   1.767   1.885 -1.0942 -0.7577  0.5600
 1382TIP3   OH221332   3.173   3.770   7.329  0.0900 -0.1513 -0.5197
 1382TIP3    H121333   3.095   3.794   7.279  0.8765  1.5007 -1.0243
 1382TIP3    H221334   3.172   3.674   7.330 -0.8107 -0.2076 -2.3567
 1383TIP3   OH221335   6.051   0.037   7.369  0.6160  0.1426  0.1384
 1383TIP3    H121336   6.075   0.112   7.315  0.4111 -0.0519 -0.2298
 1383TIP3    H221337   6.096  -0.037   7.329 -0.5449 -0.2243 -0.5590
 1384TIP3   OH221338   1.718   1.363   2.278 -0.4390  0.0622  0.6693
 1384TIP3    H121339   1.631   1.390   2.307 -0.3976  0.2454  0.6239
 1384TIP3    H221340   1.721   1.268   2.294 -0.0041  0.3177  2.3139
 1385TIP3   OH221341   3.651   2.120   6.521 -0.7487 -0.1186 -0.3323
 1385TIP3    H121342   3.674   2.114   6.614 -1.4284  3.5660  0.2310
 1385TIP3    H221343   3.556   2.130   6.520 -0.6931  0.4577 -1.3579
 1386TIP3   OH221344   1.360   2.151   5.605 -0.2277  0.5571 -0.3460
 1386TIP3    H121345   1.381   2.109   5.521  0.2512  1.0523 -0.4783
 1386TIP3    H221346   1.439   2.201   5.627 -0.5796  0.9247  0.0965
 1387TIP3   OH221347   4.380   1.567   6.246  0.2175 -0.1645  0.0667
 1387TIP3    H121348   4.363   1.552   6.153  0.4249  0.9784 -0.1711
 1387TIP3    H221349   4.312   1.516   6.291 -0.9701  0.6112 -0.7598
 1388TIP3   OH221350   1.824   3.486   6.337  0.1542 -0.2884  0.4342
 1388TIP3    H121351   1.761   3.424   6.373 -1.5480  0.7811 -0.5859
 1388TIP3    H221352   1.773   3.564   6.316  1.5451  0.1578 -1.6853
 1389TIP3   OH221353   5.662   1.287   6.804 -0.1811 -0.1567  0.4471
 1389TIP3    H121354   5.650   1.193   6.794 -0.5794 -0.2926  1.9206
 1389TIP3    H221355   5.601   1.327   6.742  0.9136 -0.8318 -1.1413
 1390TIP3   OH221356   0.969   5.768   0.558  0.1145  0.4207  0.2928
 1390TIP3    H121357   0.957   5.842   0.499 -1.1908  1.2530  1.5508
 1390TIP3    H221358   0.910   5.785   0.631  1.4222 -0.7531  1.6935
 1391TIP3   OH221359   3.082   5.797   0.212  0.4343 -0.2996  1.3477
 1391TIP3    H121360   3.008   5.739   0.193  0.4973  0.1473 -0.4231
 1391TIP3    H221361   3.156   5.756   0.167  0.6777  0.6583  0.8649
 1392TIP3   OH221362   0.680   4.874   1.153  0.3112 -0.0891  0.7398
 1392TIP3    H121363   0.738   4.834   1.088  0.1902  0.7829  0.0608
 1392TIP3    H221364   0.654   4.958   1.113  0.2054  0.4569  1.9076
 1393TIP3   OH221365   4.796   3.750   1.092 -0.0912 -0.1089  0.0232
 1393TIP3    H121366   4.719   3.729   1.039  0.9251 -0.7533 -1.2584
 1393TIP3    H221367   4.762   3.803   1.164 -1.6482  0.0691 -0.8026
 1394TIP3   OH221368   5.286   2.808   6.266  0.2229  0.0814 -0.0743
 1394TIP3    H121369   5.226   2.842   6.199 -0.2577  0.0054  0.3110
 1394TIP3    H221370   5.315   2.724   6.232  2.0682  1.1966 -1.4257
 1395TIP3   OH221371   1.286   4.703   6.491 -0.0827  0.5170 -0.7182
 1395TIP3    H121372   1.357   4.658   6.446 -0.2598 -0.3498 -0.1633
 1395TIP3    H221373   1.208   4.684   6.439  0.0822  1.5425 -1.3779
 1396TIP3   OH221374   1.642   5.647   1.007  0.0749 -0.1009  0.1528
 1396TIP3    H121375   1.682   5.636   0.921  0.3775 -0.5925  0.3506
 1396TIP3    H221376   1.572   5.711   0.993  0.4799  0.2392 -0.3365
 1397TIP3   OH221377   3.266   3.931   6.817 -0.4542 -0.3075  0.0908
 1397TIP3    H121378   3.342   3.958   6.869 -0.6492  0.4185  0.0092
 1397TIP3    H221379   3.303   3.889   6.740 -0.1449 -0.1819  0.1714
 1398TIP3   OH221380   0.538   6.418   7.645  0.9934 -0.2609 -0.0072
 1398TIP3    H121381   0.599   6.419   7.571  0.2723 -0.9233 -0.6109
 1398TIP3    H221382   0.511   6.327   7.653 -0.4265  0.1292 -0.1611
 1399TIP3   OH221383   3.400   5.252   0.450 -0.1928 -0.0740  0.3312
 1399TIP3    H121384   3.313   5.285   0.429 -0.1468  0.1993  0.5720
 1399TIP3    H221385   3.448   5.255   0.368 -0.2385  0.3040  0.3206
 1400TIP3   OH221386   4.668   6.302   6.183 -0.7831  0.0679 -0.1981
 1400TIP3    H121387   4.614   6.367   6.138  0.1063  1.3481  0.5042
 1400TIP3    H221388   4.755   6.312   6.143 -1.2490 -2.8312 -2.2066
 1401TIP3   OH221389   0.703   3.245   0.166  0.1414  0.9081  0.3700
 1401TIP3    H121390   0.650   3.174   0.129  0.3543  1.3087 -0.7389
 1401TIP3    H221391   0.667   3.259   0.254 -1.0020  0.5847 -0.0368
 1402TIP3   OH221392   3.167   2.156   6.988 -0.1960 -0.0820  0.0978
 1402TIP3    H121393   3.188   2.064   6.973 -1.9899 -0.6624  0.8538
 1402TIP3    H221394   3.108   2.179   6.917 -1.7436 -0.2893  1.2552
 1403TIP3   OH221395   4.848   0.226   0.370 -0.4266  0.6291 -0.2141
 1403TIP3    H121396   4.872   0.139   0.340 -0.5149  0.8650 -0.9889
 1403TIP3    H221397   4.753   0.231   0.356 -0.2152  1.3488 -1.5152
 1404TIP3   OH221398   1.733   5.653   1.842 -0.3642 -0.1824  0.2773
 1404TIP3    H121399   1.664   5.719   1.841  0.4093  0.6444 -0.0862
 1404TIP3    H221400   1.698   5.580   1.791  0.1091  1.3936 -2.5223
 1405TIP3   OH221401   2.445   1.532   7.251 -0.0950 -0.6309  0.8402
 1405TIP3    H121402   2.362   1.502   7.290 -0.2519 -0.5886  0.5449
 1405TIP3    H221403   2.451   1.624   7.277 -1.1314 -0.0639 -0.7525
 1406TIP3   OH221404   0.750   5.204   1.044 -0.3921  0.0824 -0.1702
 1406TIP3    H121405   0.775   5.129   0.989 -0.8224 -0.3877  0.2626
 1406TIP3    H221406   0.809   5.274   1.017  1.0084 -0.8192  0.4361
 1407TIP3   OH221407   5.118   1.891   0.446  0.1456 -0.3736  0.2328
 1407TIP3    H121408   5.025   1.911   0.434  0.4310 -0.0784 -1.7712
 1407TIP3    H221409   5.129   1.802   0.412  0.6925 -0.2021 -0.0585
 1408TIP3   OH221410   3.090   2.202   6.414  0.7573  0.2796 -0.1082
 1408TIP3    H121411   3.011   2.253   6.397 -1.6012 -3.1716 -0.6687
 1408TIP3    H221412   3.071   2.155   6.496  3.3019  1.0986  1.0528
 1409TIP3   OH221413   3.497   3.706   7.714  0.0549  0.3331  0.0957
 1409TIP3    H121414   3.418   3.726   7.664 -0.3923  0.3378  0.7942
 1409TIP3    H221415   3.475   3.729   7.804  0.9949  0.7400  0.2370
 1410TIP3   OH221416   5.557   2.816   0.649  0.0673 -0.5516 -0.2935
 1410TIP3    H121417   5.607   2.808   0.569  0.2044 -0.4871 -0.2139
 1410TIP3    H221418   5.529   2.908   0.651  0.8377 -0.3206  0.1943
 1411TIP3   OH221419   4.858   0.691   1.203 -0.0609  0.5271 -0.0181
 1411TIP3    H121420   4.790   0.624   1.199  0.1728  0.3053 -0.2812
 1411TIP3    H221421   4.882   0.695   1.296  1.4168 -1.2622 -0.2646
 1412TIP3   OH221422   2.542   2.661   1.020  0.0359 -0.4651 -0.2630
 1412TIP3    H121423   2.596   2.614   1.084  0.9664 -1.8195 -1.9662
 1412TIP3    H221424   2.571   2.752   1.027 -0.8908 -0.2873  2.2003
 1413TIP3   OH221425   3.284   4.543   7.607  0.6253  0.1757  0.3961
 1413TIP3    H121426   3.222   4.591   7.552  1.2630 -0.3854 -0.8534
 1413TIP3    H221427   3.274   4.452   7.580  0.4465 -0.2215  1.7358
 1414TIP3   OH221428   0.596   5.911   1.054  0.0530 -0.1137  0.3485
 1414TIP3    H121429   0.584   5.817   1.041 -3.2865  0.3414 -0.9667
 1414TIP3    H221430   0.625   5.943   0.969 -3.2612  0.4892 -0.6965
 1415TIP3   OH221431   0.736   3.360   6.064 -0.2948  0.3061  0.7130
 1415TIP3    H121432   0.704   3.275   6.033 -1.1473  0.2194  1.7688
 1415TIP3    H221433   0.782   3.398   5.989  0.4745 -1.2639  0.3510
 1416TIP3   OH221434   4.356   0.958   7.534 -0.1169  0.4710  0.0252
 1416TIP3    H121435   4.374   1.048   7.505 -0.5068  1.0083  1.3767
 1416TIP3    H221436   4.385   0.956   7.625 -1.1514 -0.4356  0.3591
 1417TIP3   OH221437   2.247   3.554   0.117 -0.3753 -0.1476  0.5617
 1417TIP3    H121438   2.195   3.616   0.168  0.9220 -0.7204  2.7131
 1417TIP3    H221439   2.255   3.477   0.174 -0.3363 -1.5500 -1.2515
 1418TIP3   OH221440   1.561   1.973   0.830 -0.0943 -0.5431  0.0165
 1418TIP3    H121441   1.553   2.041   0.897  1.0170 -0.1239 -0.2560
 1418TIP3    H221442   1.561   2.020   0.747  2.5310 -0.6154 -0.1272
 1419TIP3   OH221443   2.305   5.199   0.788 -0.3069 -0.1853 -0.2605
 1419TIP3    H121444   2.236   5.261   0.764  1.7369  2.5246  0.4640
 1419TIP3    H221445   2.367   5.202   0.715  1.2783  0.9915  1.0598
 1420TIP3   OH221446   2.791   1.487   5.009  0.5203 -0.2774 -0.9010
 1420TIP3    H121447   2.866   1.479   5.067 -1.2204  1.6732  1.8523
 1420TIP3    H221448   2.757   1.398   5.002  0.1148 -0.4606  2.1644
 1421TIP3   OH221449   5.698   0.931   6.505 -0.1067  0.0252  0.5622
 1421TIP3    H121450   5.766   0.987   6.468  0.3594 -0.8432  0.0838
 1421TIP3    H221451   5.618   0.982   6.496  0.3512  0.7438  0.4271
 1422TIP3   OH221452   5.490   4.533   1.554 -0.8425 -0.0299  0.1300
 1422TIP3    H121453   5.486   4.449   1.508 -1.2497  1.0920 -2.0145
 1422TIP3    H221454   5.580   4.564   1.539 -0.6031 -0.1842  1.1563
 1423TIP3   OH221455   4.829   1.611   7.013  0.0831  0.0460  0.4050
 1423TIP3    H121456   4.857   1.595   7.104  0.6813 -0.9395  0.0668
 1423TIP3    H221457   4.812   1.524   6.978  0.2972  0.3833 -0.5672
 1424TIP3   OH221458   6.281   2.174   1.090 -0.1073 -0.5793 -0.5652
 1424TIP3    H121459   6.187   2.183   1.077 -0.2501 -1.6937 -0.4742
 1424TIP3    H221460   6.313   2.135   1.009 -0.0589 -2.0363  0.1197
 1425TIP3   OH221461   6.114   3.618   0.851  0.3257 -0.0945  0.7139
 1425TIP3    H121462   6.058   3.575   0.916  1.1934 -1.0915  0.8247
 1425TIP3    H221463   6.075   3.595   0.767  2.6332 -4.1616  0.4915
 1426TIP3   OH221464   5.800   0.435   0.184 -0.3288 -0.1483 -0.1714
 1426TIP3    H121465   5.822   0.524   0.156 -0.4583 -0.4374 -1.2774
 1426TIP3    H221466   5.704   0.432   0.179 -0.4406  0.1277  1.4506
 1427TIP3   OH221467   2.477   0.594   2.300 -0.3349  0.3933 -0.0951
 1427TIP3    H121468   2.572   0.592   2.312 -0.0231 -1.6488 -2.0964
 1427TIP3    H221469   2.464   0.658   2.230 -0.7261  2.2902  1.6319
 1428TIP3   OH221470   1.831   5.916   2.061  0.4438 -0.1220 -0.3595
 1428TIP3    H121471   1.765   5.911   2.131 -0.1135 -1.2880 -0.9404
 1428TIP3    H221472   1.904   5.964   2.101 -0.8856  1.5776  0.1835
 1429TIP3   OH221473   3.808   1.747   0.306  0.0032 -0.1363 -0.3247
 1429TIP3    H121474   3.893   1.707   0.290  0.0551 -0.5252  0.7998
 1429TIP3    H221475   3.828   1.837   0.330 -0.0410  0.2931 -1.8388
 1430TIP3   OH221476   2.962   3.094   1.900 -0.0572  0.1763  0.2911
 1430TIP3    H121477   2.961   3.015   1.954  2.7785 -0.3911 -0.3208
 1430TIP3    H221478   2.938   3.165   1.959  1.0827 -0.6744  1.8437
 1431TIP3   OH221479   5.693   2.716   6.783  0.3744  0.5233 -0.1969
 1431TIP3    H121480   5.650   2.795   6.814  1.5142  1.1569 -0.1880
 1431TIP3    H221481   5.747   2.687   6.857  0.6046  0.2033 -0.4854
 1432TIP3   OH221482   3.214   3.026   6.138  0.3269  0.2025  0.7616
 1432TIP3    H121483   3.297   2.982   6.118 -0.0513  0.5069 -1.9247
 1432TIP3    H221484   3.236   3.119   6.140 -0.0175  0.3505 -0.7864
 1433TIP3   OH221485   4.620   6.196   1.170  0.3897 -0.2221 -0.2999
 1433TIP3    H121486   4.535   6.172   1.208 -0.4649  1.4988 -1.0293
 1433TIP3    H221487   4.683   6.179   1.240 -1.0488  2.2382  1.7262
 1434TIP3   OH221488   2.470   1.280   7.470  0.7702 -0.6843 -0.8084
 1434TIP3    H121489   2.426   1.211   7.421  0.6451 -1.4531  0.3551
 1434TIP3    H221490   2.399   1.332   7.508  0.8552 -0.6938 -0.6306
 1435TIP3   OH221491   6.494   1.305   7.025  0.2643  0.1329 -0.1298
 1435TIP3    H121492   6.580   1.344   7.041  0.1308  0.9187 -1.2383
 1435TIP3    H221493   6.513   1.224   6.977  0.3814  0.4054 -0.5480
 1436TIP3   OH221494   1.059   0.723   7.667 -0.2002 -0.2199  0.1871
 1436TIP3    H121495   1.131   0.660   7.669  0.2432  0.0859 -2.4667
 1436TIP3    H221496   1.083   0.786   7.599 -1.3220  2.0164  1.7296
 1437TIP3   OH221497   5.770   3.075   7.363 -0.5253 -0.2201 -0.0679
 1437TIP3    H121498   5.750   3.150   7.419 -0.1381 -0.5211  0.4710
 1437TIP3    H221499   5.768   3.111   7.274  0.8266  0.7007  0.2457
 1438TIP3   OH221500   1.400   1.589   6.378 -0.0781 -0.0232 -0.0848
 1438TIP3    H121501   1.472   1.535   6.410  1.2218 -0.5961 -3.5666
 1438TIP3    H221502   1.335   1.526   6.347 -2.4225  0.4734  3.2166
 1439TIP3   OH221503   5.209   0.787   6.131  0.6716 -0.5097  0.0702
 1439TIP3    H121504   5.227   0.774   6.037  1.4180 -3.0021  0.4827
 1439TIP3    H221505   5.227   0.702   6.170  1.7456  0.8535  2.7329
 1440TIP3   OH221506   4.570   2.357   7.034 -0.8247 -0.9091 -0.6905
 1440TIP3    H121507   4.624   2.279   7.019  0.2350 -0.8466  2.1252
 1440TIP3    H221508   4.489   2.323   7.071  0.7526 -0.7448  3.4050
 1441TIP3   OH221509   5.690   0.812   1.117 -0.8457  0.4505  0.1767
 1441TIP3    H121510   5.744   0.872   1.168  3.1318 -1.4312 -1.3708
 1441TIP3    H221511   5.697   0.845   1.027 -1.5553 -0.3622 -0.1934
 1442TIP3   OH221512   6.592   4.689   1.862 -0.5141 -0.2415 -0.0873
 1442TIP3    H121513   6.645   4.769   1.871 -2.5278  1.3307 -1.3157
 1442TIP3    H221514   6.575   4.662   1.953  0.7794  0.3025  0.3417
 1443TIP3   OH221515   3.444   4.878   6.184 -0.3195 -0.7173 -0.4525
 1443TIP3    H121516   3.380   4.808   6.175 -0.2150 -0.6088 -2.2260
 1443TIP3    H221517   3.400   4.944   6.238 -1.1268 -1.2978 -0.3880
 1444TIP3   OH221518   6.285   3.413   0.723  0.0868 -0.8086  0.3899
 1444TIP3    H121519   6.279   3.367   0.807  0.2829  0.4765  1.1309
 1444TIP3    H221520   6.251   3.501   0.741  1.5470 -0.0207 -0.4766
 1445TIP3   OH221521   1.602   1.592   1.260  0.4967  0.0141 -0.3069
 1445TIP3    H121522   1.534   1.654   1.288 -0.2149 -1.0302  0.3104
 1445TIP3    H221523   1.559   1.507   1.261  1.6822 -0.6035 -0.4116
 1446TIP3   OH221524   0.674   3.948   0.536 -0.2442 -0.0340 -0.1116
 1446TIP3    H121525   0.603   3.893   0.502 -0.2165  0.5143 -1.0996
 1446TIP3    H221526   0.699   4.002   0.461 -0.3002  1.3553  0.8500
 1447TIP3   OH221527   6.439   0.806   1.729 -0.1852 -0.0421 -0.6946
 1447TIP3    H121528   6.393   0.738   1.679 -1.0518 -1.0876  1.4243
 1447TIP3    H221529   6.407   0.888   1.692 -0.7817 -0.7699 -1.8656
 1448TIP3   OH221530   6.585   2.647   1.525 -0.3426  1.0228  0.2773
 1448TIP3    H121531   6.496   2.662   1.491 -0.5998 -0.6969  0.1079
 1448TIP3    H221532   6.571   2.603   1.608  0.3535  1.7203  0.7707
 1449TIP3   OH221533   0.806   1.141   5.959  0.5653  0.0690  0.4574
 1449TIP3    H121534   0.763   1.169   5.878  2.1348  0.8513 -0.1463
 1449TIP3    H221535   0.844   1.056   5.938 -1.1189 -0.9327  1.1875
 1450TIP3   OH221536   5.723   0.905   7.703 -0.3061 -0.5372 -0.2819
 1450TIP3    H121537   5.689   0.825   7.664 -1.1883  0.2243 -1.1528
 1450TIP3    H221538   5.733   0.885   7.796 -0.8918 -1.5214 -0.4163
 1451TIP3   OH221539   6.576   5.705   7.303  0.7705 -0.1848 -0.3101
 1451TIP3    H121540   6.512   5.727   7.370  1.6620  0.1534  0.4602
 1451TIP3    H221541   6.598   5.789   7.263  2.0451 -0.0141  0.6697
 1452TIP3   OH221542   5.573   1.650   6.294 -0.2107  0.6876  0.1570
 1452TIP3    H121543   5.561   1.569   6.245 -0.7338  1.0476 -0.3150
 1452TIP3    H221544   5.491   1.698   6.282  0.0482  1.2325  0.5362
 1453TIP3   OH221545   3.196   4.509   6.332  0.6531 -0.5253 -0.8470
 1453TIP3    H121546   3.209   4.469   6.419  1.8411 -0.3377 -0.9210
 1453TIP3    H221547   3.131   4.453   6.290 -1.4960  0.5133  0.8659
 1454TIP3   OH221548   4.884   1.350   5.642  0.3682 -0.1002 -0.4086
 1454TIP3    H121549   4.856   1.259   5.656 -0.2412  0.0189 -0.8458
 1454TIP3    H221550   4.963   1.342   5.588  1.0091 -0.4163  0.5383
 1455TIP3   OH221551   0.102   5.974   0.331  0.0494  0.1730 -0.2996
 1455TIP3    H121552   0.096   6.054   0.280  0.8272  0.6117  0.2875
 1455TIP3    H221553   0.168   5.922   0.286  1.3342  0.9001  0.6815
 1456TIP3   OH221554   0.099   6.426   7.682 -0.1030  0.3964  0.1085
 1456TIP3    H121555   0.086   6.358   7.616  0.9494  0.2728  0.0126
 1456TIP3    H221556   0.158   6.488   7.640 -0.9467  1.3078  0.2478
 1457TIP3   OH221557   0.940   5.342   1.223 -0.2166 -0.5697  0.3503
 1457TIP3    H121558   0.953   5.346   1.128 -1.8856 -1.6633  0.0247
 1457TIP3    H221559   0.967   5.254   1.247 -0.0909 -0.3996  0.8280
 1458TIP3   OH221560   1.930   1.570   7.107 -0.2297 -0.1425  0.3465
 1458TIP3    H121561   1.953   1.663   7.096  1.7685 -0.4762  1.1875
 1458TIP3    H221562   1.836   1.570   7.125 -0.8470  1.4696 -2.3412
 1459TIP3   OH221563   6.491   1.002   0.298 -0.0601  0.4858  1.0375
 1459TIP3    H121564   6.586   1.005   0.315  0.2153 -1.1964  0.0170
 1459TIP3    H221565   6.457   0.941   0.363 -0.4206  0.9060  1.2500
 1460TIP3   OH221566   1.085   1.384   6.998 -0.4532 -0.0547  0.3579
 1460TIP3    H121567   1.046   1.326   7.063 -0.0181 -1.7994 -0.8571
 1460TIP3    H221568   1.014   1.441   6.970 -1.4589 -1.4125  0.0809
 1461TIP3   OH221569   2.512   4.140   6.496  0.6774 -0.2614  0.1890
 1461TIP3    H121570   2.530   4.135   6.590  1.0504  0.3692  0.1565
 1461TIP3    H221571   2.559   4.066   6.459 -0.8861 -1.5656  0.6888
 1462TIP3   OH221572   5.924   6.536   1.617 -0.5250  0.4145 -0.0241
 1462TIP3    H121573   5.957   6.626   1.623 -1.3353  0.6811  0.4948
 1462TIP3    H221574   5.983   6.486   1.674  0.6376  0.3873 -1.1914
 1463TIP3   OH221575   4.339   2.407   6.727 -0.5171 -0.0673 -0.2160
 1463TIP3    H121576   4.401   2.455   6.782 -0.6668  1.6427 -1.4546
 1463TIP3    H221577   4.327   2.323   6.772 -2.3139  1.9588  3.6386
 1464TIP3   OH221578   0.296   3.180   1.457 -0.0318 -0.1418  0.1500
 1464TIP3    H121579   0.274   3.273   1.444 -0.3733 -0.3628 -0.9173
 1464TIP3    H221580   0.211   3.138   1.473 -0.3804 -0.8300 -2.9359
 1465TIP3   OH221581   3.186   3.335   5.575 -0.2153 -0.7328 -0.1308
 1465TIP3    H121582   3.163   3.311   5.486  0.7905  1.3275 -1.0202
 1465TIP3    H221583   3.103   3.349   5.620 -0.8734  2.0367 -1.9308
 1466TIP3   OH221584   4.350   0.687   5.980 -0.1301  0.1549  0.2192
 1466TIP3    H121585   4.411   0.706   5.909 -0.0121  1.7172  0.6913
 1466TIP3    H221586   4.294   0.764   5.984 -0.8647 -0.4067  1.0826
 1467TIP3   OH221587   5.176   1.173   6.212 -0.3495 -0.2154 -0.3136
 1467TIP3    H121588   5.182   1.108   6.283 -3.4718 -1.6014 -1.1349
 1467TIP3    H221589   5.195   1.123   6.133 -2.3826 -0.1248 -0.9175
 1468TIP3   OH221590   6.032   5.315   0.713 -0.9730 -0.5569 -0.0545
 1468TIP3    H121591   6.117   5.322   0.757 -0.8356  2.2858 -0.6326
 1468TIP3    H221592   6.046   5.248   0.646  1.5452  1.2626 -1.5269
 1469TIP3   OH221593   2.642   1.432   6.139 -0.2519 -0.2643 -0.3269
 1469TIP3    H121594   2.674   1.349   6.103  1.8742  0.0935  0.5897
 1469TIP3    H221595   2.711   1.495   6.119 -0.3939  0.6038  1.7008
 1470TIP3   OH221596   1.887   2.410   1.381 -0.5738 -0.3134 -0.2682
 1470TIP3    H121597   1.951   2.408   1.453 -0.2597 -0.1302 -0.5402
 1470TIP3    H221598   1.816   2.464   1.415 -0.1804  0.2317 -0.2908
 1471TIP3   OH221599   2.023   5.199   6.435 -0.1762 -0.5570 -0.2744
 1471TIP3    H121600   1.930   5.204   6.458  0.0682 -3.4739  1.8303
 1471TIP3    H221601   2.023   5.193   6.339 -2.0266  0.7927 -0.4209
 1472TIP3   OH221602   1.782   0.442   5.875 -0.1449 -0.3501  0.1001
 1472TIP3    H121603   1.713   0.487   5.827 -0.1439 -0.9987 -0.5334
 1472TIP3    H221604   1.853   0.432   5.811 -0.6697 -2.4763 -0.2195
 1473TIP3   OH221605   2.438   1.011   6.258 -0.9271  0.0440  0.0810
 1473TIP3    H121606   2.419   1.093   6.212 -0.5527  0.3700  0.4886
 1473TIP3    H221607   2.454   0.947   6.189  2.8044  1.2257 -0.3754
 1474TIP3   OH221608   5.548   0.778   6.702 -0.2156  0.0264 -0.2058
 1474TIP3    H121609   5.582   0.812   6.619 -0.4637  1.4469  0.2568
 1474TIP3    H221610   5.626   0.745   6.747  0.5060  2.4400  0.4604
 1475TIP3   OH221611   0.843   0.866   0.269 -0.6391  0.2438  0.4823
 1475TIP3    H121612   0.798   0.845   0.351 -1.8833 -0.2305 -0.2822
 1475TIP3    H221613   0.836   0.961   0.262 -1.8775  0.1487  0.2074
 1476TIP3   OH221614   4.864   6.327   0.450  0.2093 -0.3135 -0.2397
 1476TIP3    H121615   4.781   6.342   0.404 -1.2471 -2.7798  1.3443
 1476TIP3    H221616   4.923   6.293   0.383 -0.7059 -0.4138 -1.0193
 1477TIP3   OH221617   0.159   5.187   2.278 -0.2248 -0.0025 -0.1205
 1477TIP3    H121618   0.095   5.238   2.228 -0.8332 -1.3152 -0.7359
 1477TIP3    H221619   0.203   5.251   2.333  0.6663  1.5668 -2.5009
 1478TIP3   OH221620   5.747   6.179   0.419  0.0782  0.3984 -0.0998
 1478TIP3    H121621   5.672   6.122   0.401  0.3299 -0.3097  0.9868
 1478TIP3    H221622   5.708   6.255   0.464  0.1035 -0.4818  1.4830
 1479TIP3   OH221623   4.936   0.365   1.187 -0.0174 -0.5344 -0.1537
 1479TIP3    H121624   4.843   0.346   1.172  0.1286 -0.4449 -1.2471
 1479TIP3    H221625   4.981   0.325   1.112  0.9904 -1.9130  1.1353
 1480TIP3   OH221626   2.515   2.387   5.046  0.2663 -0.4267  0.0348
 1480TIP3    H121627   2.451   2.435   4.993  0.5062 -0.6258 -0.4408
 1480TIP3    H221628   2.521   2.438   5.127  0.8168  0.5947 -0.6181
 1481TIP3   OH221629   4.142   5.703   7.215 -0.7077 -0.3690 -0.2887
 1481TIP3    H121630   4.124   5.612   7.238 -1.2836  0.2344  1.8789
 1481TIP3    H221631   4.207   5.732   7.280  0.2486  0.4985 -1.5757
 1482TIP3   OH221632   0.802   5.353   1.468  0.5058 -0.1082  0.1463
 1482TIP3    H121633   0.854   5.377   1.391  0.7834 -3.6466 -0.9332
 1482TIP3    H221634   0.867   5.345   1.538  0.3742  2.1589  0.6242
 1483TIP3   OH221635   6.588   6.042   1.514 -0.0828 -0.2427  0.3907
 1483TIP3    H121636   6.679   6.033   1.542 -0.1480 -1.2139  0.3286
 1483TIP3    H221637   6.583   5.995   1.431 -1.0165 -1.7242  1.2374
 1484TIP3   OH221638   1.863   1.036   0.255 -0.0852  0.1172 -0.4148
 1484TIP3    H121639   1.806   1.112   0.262  0.1921  0.3380 -0.5377
 1484TIP3    H221640   1.901   1.042   0.167 -0.9921 -0.8234 -0.8946
 1485TIP3   OH221641   1.658   3.478   7.169  0.6973 -0.2873  0.7115
 1485TIP3    H121642   1.739   3.495   7.217  1.3787 -1.1974 -0.0648
 1485TIP3    H221643   1.683   3.483   7.077  0.2652 -2.1342  0.4367
 1486TIP3   OH221644   4.552   6.150   0.228 -0.0457  0.1519  0.1858
 1486TIP3    H121645   4.481   6.138   0.291 -0.1582  0.1628  0.0628
 1486TIP3    H221646   4.574   6.243   0.234  1.4528 -0.2482  1.8067
 1487TIP3   OH221647   4.779   2.708   0.578  0.1665 -0.5249 -0.0800
 1487TIP3    H121648   4.820   2.774   0.521 -0.4836 -0.9506 -1.0476
 1487TIP3    H221649   4.829   2.628   0.561 -0.5253 -0.8426 -0.6475
 1488TIP3   OH221650   4.899   3.669   0.266  0.7329  0.3298  0.1966
 1488TIP3    H121651   4.867   3.655   0.177  0.9582  2.5807 -0.2861
 1488TIP3    H221652   4.992   3.688   0.255  0.9036 -0.0096  0.9935
 1489TIP3   OH221653   2.910   0.776   7.464 -0.2254 -0.1104 -0.8383
 1489TIP3    H121654   2.914   0.698   7.409 -0.7321 -0.0890 -0.9049
 1489TIP3    H221655   2.996   0.817   7.452  1.7427 -2.7820  2.3874
 1490TIP3   OH221656   6.216   1.966   2.119 -0.0463  0.2499  0.0613
 1490TIP3    H121657   6.173   2.005   2.043 -2.1529  0.0012  1.0710
 1490TIP3    H221658   6.254   2.041   2.166  0.9338  0.4414 -0.9889
 1491TIP3   OH221659   0.720   3.026   0.545  0.1765  0.7064  0.5175
 1491TIP3    H121660   0.746   2.947   0.592 -0.4837  0.5334  0.6061
 1491TIP3    H221661   0.664   3.073   0.606 -0.0690  0.8578  0.1813
 1492TIP3   OH221662   6.320   3.858   6.542  0.0251  0.5772  0.0988
 1492TIP3    H121663   6.284   3.776   6.574  1.4056 -0.2127 -0.2855
 1492TIP3    H221664   6.341   3.841   6.450  3.7489  0.0386  0.8571
 1493TIP3   OH221665   1.783   2.713   6.481  0.0628 -0.2384  0.4540
 1493TIP3    H121666   1.745   2.666   6.406 -1.0334  0.2776  0.6612
 1493TIP3    H221667   1.861   2.664   6.504  0.8882  0.0525 -1.5537
 1494TIP3   OH221668   3.525   0.101   6.632  1.0218 -0.1711  0.3377
 1494TIP3    H121669   3.436   0.065   6.630  1.2467 -0.7707 -2.1383
 1494TIP3    H221670   3.515   0.186   6.674 -1.1214  0.6117 -1.5076
 1495TIP3   OH221671   5.352   5.108   6.947 -0.3123 -0.7521  0.5818
 1495TIP3    H121672   5.333   5.202   6.954  2.5644 -0.0510  0.3087
 1495TIP3    H221673   5.289   5.076   6.883 -1.4992  0.9337  0.8181
 1496TIP3   OH221674   6.018   4.031   1.419  0.3372 -0.3317  0.2922
 1496TIP3    H121675   5.988   4.095   1.355  2.0562  0.4280  0.1996
 1496TIP3    H221676   5.981   4.061   1.502  0.8663  0.6347  0.1966
 1497TIP3   OH221677   3.649   3.073   6.951 -0.0337 -0.0698 -0.3991
 1497TIP3    H121678   3.677   3.143   6.892 -1.0766 -0.2909 -1.1961
 1497TIP3    H221679   3.674   2.992   6.905  1.4661 -0.2456  0.6647
 1498TIP3   OH221680   3.445   6.492   6.002  0.0455  0.0845  0.4453
 1498TIP3    H121681   3.459   6.518   5.911  0.5905 -2.6294 -0.3450
 1498TIP3    H221682   3.353   6.511   6.019 -0.0399  0.7011 -0.6182
 1499TIP3   OH221683   6.596   1.695   0.082  0.1804  0.0313  0.4666
 1499TIP3    H121684   6.551   1.643   0.149  1.1225 -0.8209  0.4674
 1499TIP3    H221685   6.540   1.771   0.069 -0.6054 -0.3672  1.3822
 1500TIP3   OH221686   4.843   4.315   6.479  0.5384 -0.1463  0.6563
 1500TIP3    H121687   4.893   4.354   6.551  0.6490  0.1560  0.4158
 1500TIP3    H221688   4.775   4.379   6.460  0.7819 -0.0211  0.1905
 1501TIP3   OH221689   0.281   0.549   6.752 -0.0007  0.1395  0.3817
 1501TIP3    H121690   0.235   0.467   6.764  0.2299 -0.0050  0.2896
 1501TIP3    H221691   0.317   0.570   6.838  0.3031 -0.0769  0.3084
 1502TIP3   OH221692   0.592   6.303   0.622  0.5358 -0.4384  0.0544
 1502TIP3    H121693   0.682   6.286   0.592  0.4312 -0.0769 -0.4846
 1502TIP3    H221694   0.581   6.397   0.612  0.8757 -0.0936  2.3660
 1503TIP3   OH221695   2.045   0.341   0.610 -0.0218  0.1322 -0.3429
 1503TIP3    H121696   1.953   0.313   0.611 -0.3931  1.2259 -1.5356
 1503TIP3    H221697   2.043   0.430   0.574  1.6533 -0.5187 -2.2612
 1504TIP3   OH221698   0.561   2.381   7.609  0.3117 -0.5699 -0.3302
 1504TIP3    H121699   0.499   2.348   7.674  2.1110 -1.3020  1.1009
 1504TIP3    H221700   0.645   2.345   7.637  1.5422  1.1717 -1.6500
 1505TIP3   OH221701   3.463   1.262   1.504  0.2684 -0.5949 -0.4996
 1505TIP3    H121702   3.535   1.317   1.471 -0.3966  0.4424 -0.2727
 1505TIP3    H221703   3.407   1.248   1.427  0.4033 -0.8970 -0.5418
 1506TIP3   OH221704   5.973   3.912   0.835 -0.4748  0.7068 -0.4584
 1506TIP3    H121705   5.971   3.909   0.739  1.6106 -0.6126 -0.5315
 1506TIP3    H221706   6.007   4.000   0.855 -0.7126  0.9104 -0.9284
 1507TIP3   OH221707   6.144   4.244   0.422  0.3316 -0.2058 -0.1730
 1507TIP3    H121708   6.110   4.165   0.465 -1.2662  0.8964  0.6833
 1507TIP3    H221709   6.070   4.276   0.370  0.1307  1.9757  1.3118
 1508TIP3   OH221710   0.704   4.439   1.011  0.0345 -0.1469 -0.0442
 1508TIP3    H121711   0.752   4.391   0.944 -1.7407 -0.7642 -0.9302
 1508TIP3    H221712   0.649   4.373   1.053 -0.0988  0.5446  0.9010
 1509TIP3   OH221713   1.432   0.093   5.309  0.0836 -0.1239 -0.0517
 1509TIP3    H121714   1.515   0.137   5.294  0.0055  0.0512  0.0194
 1509TIP3    H221715   1.367   0.163   5.305  0.0820 -0.0184  1.3243
 1510TIP3   OH221716   1.389   1.509   5.268 -0.1339 -0.0321  0.4449
 1510TIP3    H121717   1.479   1.527   5.241 -0.0579  0.2082  0.8468
 1510TIP3    H221718   1.391   1.421   5.305 -0.3051 -0.5018 -0.6089
 1511TIP3   OH221719   3.402   6.485   6.847  0.3379 -0.1945  0.0871
 1511TIP3    H121720   3.357   6.538   6.782 -0.0833  0.0148  0.5390
 1511TIP3    H221721   3.421   6.546   6.919  1.0236 -0.3603  0.0577
 1512TIP3   OH221722   3.855   4.099   0.730  0.0709 -0.4204  0.2945
 1512TIP3    H121723   3.840   4.188   0.700 -1.6010  0.3430  3.0247
 1512TIP3    H221724   3.772   4.054   0.713  0.4350 -1.0733  0.2085
 1513TIP3   OH221725   5.966   2.977   1.573  0.3781 -0.2583 -0.3066
 1513TIP3    H121726   5.892   2.975   1.634  1.4360  0.6164  1.0498
 1513TIP3    H221727   5.935   3.031   1.500 -0.2468  0.3240  0.3687
 1514TIP3   OH221728   0.985   1.758   7.336 -0.4187 -0.2789 -0.2871
 1514TIP3    H121729   0.984   1.813   7.415 -1.8615 -0.8098  0.1003
 1514TIP3    H221730   0.906   1.705   7.343  0.2230 -1.4237 -1.3526
 1515TIP3   OH221731   1.856   0.166   0.460 -0.3848  0.0260  0.6837
 1515TIP3    H121732   1.863   0.206   0.374  0.1163  0.8793  1.1054
 1515TIP3    H221733   1.937   0.116   0.470  0.3226  1.2580  1.3011
 1516TIP3   OH221734   2.850   4.584   6.455  0.1205 -0.0309  0.7565
 1516TIP3    H121735   2.835   4.574   6.361 -1.7473  0.6004  0.9587
 1516TIP3    H221736   2.839   4.496   6.490  1.5081 -0.4037  0.3341
 1517TIP3   OH221737   6.477   5.939   6.675 -0.0266  0.0054 -0.1737
 1517TIP3    H121738   6.510   6.021   6.714 -1.3543  0.9687 -0.9940
 1517TIP3    H221739   6.550   5.879   6.682  1.4042  1.6109 -0.5989
 1518TIP3   OH221740   2.551   1.496   2.430 -0.3698  0.0784 -0.1543
 1518TIP3    H121741   2.605   1.431   2.384  0.2639 -0.2004  0.9547
 1518TIP3    H221742   2.483   1.519   2.367 -0.6670 -1.7327 -0.5344
 1519TIP3   OH221743   1.611   2.689   6.253 -0.1328  0.3175  0.3310
 1519TIP3    H121744   1.532   2.737   6.279 -1.2920 -0.8837 -0.7978
 1519TIP3    H221745   1.579   2.603   6.228  1.3607  0.2687 -1.5835
 1520TIP3   OH221746   0.243   3.696   7.729  0.0464  0.3618  0.1696
 1520TIP3    H121747   0.171   3.634   7.719 -0.0266  0.6449 -1.3538
 1520TIP3    H221748   0.224   3.765   7.665  1.3886  0.6968  0.1081
 1521TIP3   OH221749   4.009   3.901   0.892 -0.7160  0.3636 -0.4372
 1521TIP3    H121750   3.970   3.986   0.871 -2.1306 -0.7914 -3.0554
 1521TIP3    H221751   3.963   3.839   0.835  0.0841 -2.2255  1.5201
 1522TIP3   OH221752   3.692   2.875   2.291 -0.3258 -0.1005  0.4405
 1522TIP3    H121753   3.671   2.809   2.226  0.7072  1.8648 -2.0429
 1522TIP3    H221754   3.682   2.959   2.246  3.6013  1.3179  1.7006
 1523TIP3   OH221755   3.597   0.955   0.164  0.4001  0.0508 -0.1419
 1523TIP3    H121756   3.615   1.019   0.095  0.0548  1.6511  1.1947
 1523TIP3    H221757   3.504   0.967   0.184  0.7018  0.2836  1.2202
 1524TIP3   OH221758   6.044   0.623   6.607  0.0439 -0.3672 -0.1531
 1524TIP3    H121759   6.076   0.671   6.530  1.0057 -2.4302 -1.1341
 1524TIP3    H221760   6.113   0.634   6.672 -0.9626  1.7412  0.6611
 1525TIP3   OH221761   0.768   5.131   0.343 -0.1135 -0.2304  0.5079
 1525TIP3    H121762   0.838   5.070   0.364 -0.9545 -1.5764 -0.4807
 1525TIP3    H221763   0.814   5.211   0.315  1.0418 -1.0658 -0.0679
 1526TIP3   OH221764   1.807   3.101   5.749 -0.3551 -0.4764  0.1741
 1526TIP3    H121765   1.761   3.130   5.827  0.1110  1.3274 -0.1823
 1526TIP3    H221766   1.799   3.174   5.688 -0.3250 -1.6642 -1.3115
 1527TIP3   OH221767   5.510   4.517   7.540 -0.0994 -0.2933 -0.0706
 1527TIP3    H121768   5.465   4.442   7.579  1.3578 -0.3921  1.5633
 1527TIP3    H221769   5.481   4.518   7.449 -2.1548 -1.2536  0.5207
 1528TIP3   OH221770   6.115   2.100   1.934 -0.6602  0.5638 -0.0134
 1528TIP3    H121771   6.033   2.053   1.920 -0.5521  1.0083 -2.7500
 1528TIP3    H221772   6.089   2.189   1.957 -0.9711  0.7098 -0.8999
 1529TIP3   OH221773   5.509   2.982   1.687  0.0104  0.2566 -0.5237
 1529TIP3    H121774   5.572   2.947   1.624 -0.7968 -0.0614 -1.1797
 1529TIP3    H221775   5.520   2.929   1.765 -0.2848 -0.6104 -1.0549
 1530TIP3   OH221776   1.882   6.561   1.418 -0.2454  0.1207  0.6151
 1530TIP3    H121777   1.894   6.481   1.469  0.3622  0.4326  0.9676
 1530TIP3    H221778   1.962   6.611   1.433  0.0476  0.1258 -0.8283
 1531TIP3   OH221779   6.564   4.150   0.137  0.7777 -0.1466  0.3736
 1531TIP3    H121780   6.501   4.155   0.210 -0.1007 -0.8845 -0.3001
 1531TIP3    H221781   6.545   4.226   0.083 -0.6029 -1.1215 -0.6108
 1532TIP3   OH221782   0.698   5.470   7.361  0.2245 -0.4345  0.0974
 1532TIP3    H121783   0.707   5.456   7.267 -0.4594 -1.4405  0.1619
 1532TIP3    H221784   0.769   5.530   7.384  0.6285 -0.4786 -0.9920
 1533TIP3   OH221785   2.867   5.748   1.417  0.7472  0.4539  0.3512
 1533TIP3    H121786   2.802   5.718   1.480  0.3862 -0.6291 -0.4927
 1533TIP3    H221787   2.821   5.812   1.363  0.8164  0.7746  0.6717
 1534TIP3   OH221788   5.001   1.421   0.788  0.4321 -0.2630 -0.1053
 1534TIP3    H121789   4.946   1.359   0.741 -1.9213  0.0989  1.9980
 1534TIP3    H221790   4.985   1.505   0.744 -2.1254  0.1659  1.4429
 1535TIP3   OH221791   0.288   0.082   7.098 -0.5075  0.1800 -0.3391
 1535TIP3    H121792   0.302   0.125   7.014  1.0518  2.1591  0.8469
 1535TIP3    H221793   0.255   0.152   7.155  0.2705 -0.6439  1.1747
 1536TIP3   OH221794   4.201   4.177   7.421 -0.6611 -0.6288  0.1034
 1536TIP3    H121795   4.119   4.131   7.437 -0.7220 -0.7840 -0.6254
 1536TIP3    H221796   4.226   4.152   7.332  0.4643 -1.0353  0.5078
 1537TIP3   OH221797   0.608   2.923   1.260 -0.1237  0.3567  0.1951
 1537TIP3    H121798   0.596   2.961   1.347  1.1721 -0.5153  0.7713
 1537TIP3    H221799   0.608   2.999   1.201  0.6584  1.1045  1.1274
 1538TIP3   OH221800   6.017   4.285   1.907 -0.0253  0.5302 -0.2186
 1538TIP3    H121801   6.067   4.307   1.986 -0.5004 -1.2196  0.6279
 1538TIP3    H221802   6.036   4.193   1.892 -2.0146  0.1259 -0.5778
 1539TIP3   OH221803   5.603   0.540   1.448  0.7036 -0.2493 -0.0399
 1539TIP3    H121804   5.680   0.595   1.436  0.3562  0.5492  1.2041
 1539TIP3    H221805   5.604   0.517   1.541 -0.2664 -0.6719 -0.1223
 1540TIP3   OH221806   3.279   1.177   1.123  0.2900 -0.3292  1.1526
 1540TIP3    H121807   3.244   1.144   1.041  0.3873  0.6336  0.7059
 1540TIP3    H221808   3.357   1.228   1.098 -0.8457  1.7311  1.5718
 1541TIP3   OH221809   1.722   2.736   2.272  0.3321  0.2196  0.1532
 1541TIP3    H121810   1.754   2.709   2.186 -0.7030 -0.2706 -0.0946
 1541TIP3    H221811   1.801   2.759   2.321  0.9546  0.2965 -0.8493
 1542TIP3   OH221812   1.625   2.566   6.911 -0.0215 -0.1118  0.0126
 1542TIP3    H121813   1.716   2.535   6.915  0.0307  0.0729  2.8902
 1542TIP3    H221814   1.632   2.660   6.891  0.7213  0.5134  2.7299
 1543TIP3   OH221815   3.548   4.266   7.434 -0.0067  0.1121 -0.6825
 1543TIP3    H121816   3.523   4.186   7.478  0.3204  1.3373  1.9195
 1543TIP3    H221817   3.631   4.292   7.476 -0.7206  2.4186 -0.5379
 1544TIP3   OH221818   0.309   0.801   7.443  0.1686 -0.5561 -0.2711
 1544TIP3    H121819   0.332   0.840   7.527  0.0121  1.1704 -0.9726
 1544TIP3    H221820   0.349   0.714   7.444  2.6699  0.5257  0.4440
 1545TIP3   OH221821   5.913   6.636   0.144 -0.3654 -0.4885 -0.3634
 1545TIP3    H121822   5.907   6.566   0.209  2.0306 -0.2565  0.1966
 1545TIP3    H221823   5.954   6.594   0.068 -0.7003 -0.1179 -0.7564
 1546TIP3   OH221824   3.062   5.769   5.518 -0.4509  0.1431 -0.5109
 1546TIP3    H121825   3.067   5.843   5.579 -0.0924 -0.3095  0.0168
 1546TIP3    H221826   2.971   5.768   5.489 -0.4571  0.7926 -0.5250
 1547TIP3   OH221827   3.075   2.536   1.039  0.1540  0.3006  0.4285
 1547TIP3    H121828   3.091   2.611   1.097 -1.1883  0.6296  0.4110
 1547TIP3    H221829   3.072   2.461   1.098 -0.6794  0.5638  0.7349
 1548TIP3   OH221830   5.314   6.557   1.193 -0.4164  0.3027  0.3250
 1548TIP3    H121831   5.300   6.465   1.171  0.2745  0.4760 -0.9373
 1548TIP3    H221832   5.381   6.587   1.131  0.0957  1.3996  1.3593
 1549TIP3   OH221833   1.902   3.603   6.788 -0.0758 -0.2912 -0.6269
 1549TIP3    H121834   1.996   3.600   6.802  0.6682 -0.3818 -4.5559
 1549TIP3    H221835   1.865   3.548   6.858  3.0007 -2.4607 -0.5479
 1550TIP3   OH221836   1.643   1.714   2.013 -0.1173  0.2544 -0.0997
 1550TIP3    H121837   1.595   1.683   2.091  1.9008  0.3129  1.2293
 1550TIP3    H221838   1.690   1.791   2.043  2.6559 -1.1117 -0.6337
 1551TIP3   OH221839   2.429   4.471   7.297 -0.0950 -0.1617  0.1014
 1551TIP3    H121840   2.394   4.554   7.264 -0.1228 -0.1426  0.1787
 1551TIP3    H221841   2.507   4.496   7.346 -1.0143  0.0029  1.5418
 1552TIP3   OH221842   2.743   4.056   1.653 -0.8082  0.5756  0.4782
 1552TIP3    H121843   2.687   3.988   1.691 -0.1384  0.6685  1.6991
 1552TIP3    H221844   2.712   4.066   1.563 -0.6811 -1.6103  0.1318
 1553TIP3   OH221845   6.604   3.313   6.783  0.1268 -0.0691  0.4695
 1553TIP3    H121846   6.516   3.325   6.818 -0.1734 -1.8018  0.3781
 1553TIP3    H221847   6.606   3.365   6.703 -0.4568  0.7871  0.9867
 1554TIP3   OH221848   6.316   3.992   7.690  0.0607  0.2042  0.3006
 1554TIP3    H121849   6.313   3.898   7.703 -1.4964  0.0320 -1.0508
 1554TIP3    H221850   6.328   4.028   7.779  2.0227 -1.2432  0.7019
 1555TIP3   OH221851   1.433   0.643   6.659 -0.0091 -0.1120  0.0212
 1555TIP3    H121852   1.416   0.737   6.655 -0.9348 -0.3051 -0.8179
 1555TIP3    H221853   1.391   0.607   6.581  1.1289 -1.1071 -0.1655
 1556TIP3   OH221854   6.492   5.013   7.246 -0.0117 -0.1727 -0.2589
 1556TIP3    H121855   6.417   5.022   7.305  0.2148 -0.0793  0.0183
 1556TIP3    H221856   6.456   4.972   7.167 -0.8735  2.0525 -1.1234
 1557TIP3   OH221857   2.234   3.365   1.314  0.2818  0.3657 -0.1398
 1557TIP3    H121858   2.261   3.451   1.346 -2.3163  1.8073 -1.5129
 1557TIP3    H221859   2.283   3.352   1.233 -1.3439  1.9406 -1.4489
 1558TIP3   OH221860   2.892   4.435   7.346 -0.5230  0.5611  0.4291
 1558TIP3    H121861   2.820   4.378   7.370  0.3569 -1.6685 -1.8140
 1558TIP3    H221862   2.902   4.494   7.421 -3.4358 -0.2297  1.5640
 1559TIP3   OH221863   5.291   2.475   7.295  0.3027 -0.3711  0.4446
 1559TIP3    H121864   5.201   2.459   7.267  0.3051  0.9342 -0.4081
 1559TIP3    H221865   5.320   2.391   7.331 -1.6601 -0.4777  1.9673
 1560TIP3   OH221866   1.587   1.407   7.627 -0.5915  0.4552 -0.0473
 1560TIP3    H121867   1.526   1.350   7.581 -0.7529 -0.3564  1.1206
 1560TIP3    H221868   1.531   1.462   7.683 -0.3716  1.0559 -0.4105
 1561TIP3   OH221869   2.909   6.199   6.088  0.5268  0.4712 -0.1020
 1561TIP3    H121870   2.857   6.120   6.105 -0.4165  0.9896 -0.5193
 1561TIP3    H221871   2.919   6.202   5.993  0.8955  0.6393 -0.0575
 1562TIP3   OH221872   4.934   0.657   6.757  0.4664  0.4849 -0.3029
 1562TIP3    H121873   4.961   0.572   6.793  0.5192  0.1960 -0.9886
 1562TIP3    H221874   4.954   0.649   6.663 -0.1271  1.0194 -0.4781
 1563TIP3   OH221875   3.115   1.143   5.743 -0.2726 -0.0187  0.2363
 1563TIP3    H121876   3.035   1.170   5.697  0.5763  2.4204  0.0046
 1563TIP3    H221877   3.147   1.067   5.695 -2.4899 -1.1410  0.4213
 1564TIP3   OH221878   3.421   4.115   1.601  0.4405  0.5955  0.2184
 1564TIP3    H121879   3.481   4.075   1.663 -0.3176  0.8514  1.1380
 1564TIP3    H221880   3.337   4.073   1.618  0.5907 -0.8082 -2.0207
 1565TIP3   OH221881   6.397   2.178   7.080  0.4450  0.3008 -0.1439
 1565TIP3    H121882   6.492   2.189   7.085  0.7463 -2.2793  1.1233
 1565TIP3    H221883   6.374   2.212   6.994  2.4039  1.5390 -0.2448
 1566TIP3   OH221884   1.925   1.726   3.636  0.2986 -0.2166 -0.0309
 1566TIP3    H121885   1.934   1.658   3.569  0.2716  1.3587 -1.7129
 1566TIP3    H221886   1.916   1.808   3.586 -1.0620  0.8795  1.8924
 1567TIP3   OH221887   1.543   0.415   1.419  0.1295  0.5561 -0.2399
 1567TIP3    H121888   1.464   0.468   1.432  0.3504  0.6451  0.8705
 1567TIP3    H221889   1.606   0.450   1.482  1.1680  0.6800 -1.3047
 1568TIP3   OH221890   1.966   2.256   3.032  0.7448 -0.3532  0.0058
 1568TIP3    H121891   1.990   2.282   2.943 -0.3063 -0.2868 -0.2636
 1568TIP3    H221892   2.010   2.172   3.045  1.1510 -0.2187 -0.4586
 1569TIP3   OH221893   3.780   5.102   1.405 -0.0002 -0.4008  0.2649
 1569TIP3    H121894   3.685   5.113   1.398 -0.2321 -0.7991  2.1099
 1569TIP3    H221895   3.805   5.152   1.482  1.6028  1.0890 -1.1379
 1570TIP3   OH221896   3.514   2.875   0.741  0.3671  0.3015  0.8698
 1570TIP3    H121897   3.429   2.840   0.712  0.6151  0.1086  0.3641
 1570TIP3    H221898   3.561   2.800   0.775  0.9058  0.1184 -0.2312
 1571TIP3   OH221899   0.684   5.927   0.486 -0.1239 -0.1265 -0.7395
 1571TIP3    H121900   0.699   5.941   0.580  1.1414 -0.5257 -0.8634
 1571TIP3    H221901   0.769   5.942   0.446 -0.8120  0.7469 -1.9241
 1572TIP3   OH221902   3.817   0.701   0.544  0.4969 -0.3300 -1.0472
 1572TIP3    H121903   3.771   0.688   0.627  0.0143 -0.1613 -1.2826
 1572TIP3    H221904   3.795   0.791   0.519  0.6839 -0.3619 -1.3261
 1573TIP3   OH221905   5.447   0.101   1.786  0.3377 -0.2252  0.5537
 1573TIP3    H121906   5.409   0.018   1.817  0.2288 -0.9123 -1.3349
 1573TIP3    H221907   5.483   0.141   1.865  2.5571 -3.1736  1.2109
 1574TIP3   OH221908   0.591   3.417   0.926 -0.0774 -0.4638  0.2649
 1574TIP3    H121909   0.597   3.493   0.868  2.5497 -1.5303 -0.9945
 1574TIP3    H221910   0.590   3.455   1.014 -1.6211  1.0747 -0.3470
 1575TIP3   OH221911   5.200   4.630   1.468  0.7047  0.4725 -0.1316
 1575TIP3    H121912   5.269   4.571   1.437  1.3910  1.9397 -1.5421
 1575TIP3    H221913   5.121   4.575   1.470  1.2957 -0.4752 -1.4720
 1576TIP3   OH221914   6.403   4.932   6.978  0.3447 -0.5596 -0.3163
 1576TIP3    H121915   6.435   4.891   6.898 -0.3143  0.2286 -0.9981
 1576TIP3    H221916   6.308   4.935   6.966  0.4172  2.2539 -0.8476
 1577TIP3   OH221917   3.750   0.465   6.383 -0.1668 -0.3513 -0.2044
 1577TIP3    H121918   3.786   0.424   6.305  1.7123 -0.0854  0.4546
 1577TIP3    H221919   3.656   0.463   6.371 -0.0089 -2.3577 -1.4230
 1578TIP3   OH221920   1.204   3.336   7.429 -0.1766  0.3902  0.8411
 1578TIP3    H121921   1.297   3.343   7.409 -0.3718  0.6562 -0.0515
 1578TIP3    H221922   1.164   3.409   7.381 -0.8871  0.0463  0.8939
 1579TIP3   OH221923   4.891   6.410   1.785  0.1493 -0.1625  0.2294
 1579TIP3    H121924   4.984   6.392   1.799  0.0106  0.2468  1.7674
 1579TIP3    H221925   4.853   6.411   1.872 -1.3586 -0.5422 -0.4034
 1580TIP3   OH221926   4.400   5.497   0.981  0.1070  0.5946 -0.0200
 1580TIP3    H121927   4.484   5.542   0.980 -0.6728  2.1321 -1.5492
 1580TIP3    H221928   4.385   5.471   0.890 -0.2777 -1.2624  0.5372
 1581TIP3   OH221929   3.087   2.495   6.289  0.1234 -0.1663  0.3858
 1581TIP3    H121930   3.090   2.494   6.194  1.2656 -1.5788  0.4086
 1581TIP3    H221931   2.994   2.486   6.310 -0.2008  0.8279 -0.5810
 1582TIP3   OH221932   1.184   0.915   0.747  0.3849  0.3072 -0.1610
 1582TIP3    H121933   1.133   0.937   0.825 -0.1759 -0.7495 -0.2119
 1582TIP3    H221934   1.125   0.933   0.674  0.8622  1.1693 -0.3388
 1583TIP3   OH221935   6.360   3.412   0.060 -0.5656  0.3222  0.2347
 1583TIP3    H121936   6.320   3.327   0.078 -0.8141  0.1015 -1.1866
 1583TIP3    H221937   6.336   3.467   0.135  0.5429 -1.1427  1.7347
 1584TIP3   OH221938   1.498   2.142   2.283  0.3392 -0.2288  0.2689
 1584TIP3    H121939   1.488   2.126   2.377 -1.1251 -2.3753 -0.1649
 1584TIP3    H221940   1.575   2.197   2.276  0.4332  0.0594  2.7359
 1585TIP3   OH221941   1.520   0.872   1.486 -0.4757 -0.2558 -0.0241
 1585TIP3    H121942   1.548   0.953   1.444 -1.9579 -0.6478 -1.8779
 1585TIP3    H221943   1.453   0.900   1.549 -2.4425 -0.1350 -2.0504
 1586TIP3   OH221944   5.647   1.405   1.726 -0.3297 -0.2842 -0.2732
 1586TIP3    H121945   5.643   1.431   1.634  0.0930  0.5153 -0.0714
 1586TIP3    H221946   5.712   1.335   1.728 -0.9113 -0.8551 -0.6956
 1587TIP3   OH221947   2.339   3.832   2.073  0.3560  0.0569  0.7721
 1587TIP3    H121948   2.307   3.862   2.158  0.8720  0.4590  0.8284
 1587TIP3    H221949   2.383   3.908   2.035 -1.2417  0.3470 -0.5619
 1588TIP3   OH221950   1.232   1.642   5.705 -0.3268  0.3854 -0.0420
 1588TIP3    H121951   1.193   1.645   5.618 -0.4332 -1.8228 -0.1440
 1588TIP3    H221952   1.253   1.549   5.718  1.9066  0.9995  1.3126
 1589TIP3   OH221953   1.910   6.125   0.269 -0.0819 -0.3747 -0.3559
 1589TIP3    H121954   1.871   6.076   0.197 -1.5909  1.5009 -0.8829
 1589TIP3    H221955   1.910   6.216   0.239 -0.1698  0.3666  1.7458
 1590TIP3   OH221956   2.030   1.155   0.801  0.4566 -0.7968 -0.2979
 1590TIP3    H121957   2.023   1.094   0.728  0.5029  0.0431 -1.0225
 1590TIP3    H221958   2.114   1.200   0.787  0.7854 -1.0912  0.6423
 1591TIP3   OH221959   0.135   1.389   7.690 -0.2851  0.1153 -0.3878
 1591TIP3    H121960   0.148   1.295   7.680  0.1983  0.3577 -2.9076
 1591TIP3    H221961   0.040   1.401   7.684 -0.2740 -0.1510 -1.3264
 1592TIP3   OH221962   3.648   6.029   1.482 -0.0313 -1.0439 -0.8376
 1592TIP3    H121963   3.651   6.002   1.574  0.4166  1.1029 -0.1547
 1592TIP3    H221964   3.602   5.958   1.438  0.2027 -2.3782  0.9469
 1593TIP3   OH221965   2.995   2.496   0.776 -0.1312 -0.3071  0.1898
 1593TIP3    H121966   3.013   2.520   0.867  0.5493 -1.2261  0.3164
 1593TIP3    H221967   2.955   2.409   0.782 -0.5113 -0.1738 -0.3636
 1594TIP3   OH221968   1.962   1.894   6.450  0.1187 -0.0557 -0.0319
 1594TIP3    H121969   2.020   1.956   6.493  0.7285 -0.4007 -0.3446
 1594TIP3    H221970   1.875   1.932   6.461  0.7271  2.8459 -3.4362
 1595TIP3   OH221971   2.315   2.873   7.593 -0.9019 -1.0295  0.4980
 1595TIP3    H121972   2.271   2.827   7.664 -1.2843 -1.8448 -0.2468
 1595TIP3    H221973   2.249   2.934   7.559 -0.5343 -0.2247  1.2047
 1596TIP3   OH221974   4.879   2.204   0.312 -0.6466  0.2487 -0.4699
 1596TIP3    H121975   4.970   2.227   0.329 -0.9229  2.2898 -1.4240
 1596TIP3    H221976   4.831   2.232   0.390 -0.5807  0.0112 -0.3434
 1597TIP3   OH221977   3.959   4.013   7.490  0.6870 -0.0520  0.7035
 1597TIP3    H121978   3.904   3.971   7.422  0.6514 -0.0443  0.7276
 1597TIP3    H221979   3.909   4.089   7.517 -0.5318 -1.4247  2.5779
 1598TIP3   OH221980   4.289   0.064   0.357  0.3715  0.3113 -0.3652
 1598TIP3    H121981   4.351   0.100   0.294 -0.1612  0.6969 -0.6762
 1598TIP3    H221982   4.330   0.079   0.442  1.5240 -1.0424 -0.6397
 1599TIP3   OH221983   4.038   1.771   7.415  0.5787 -0.0573 -0.3713
 1599TIP3    H121984   4.124   1.792   7.451 -0.1214  1.8113  0.3352
 1599TIP3    H221985   3.994   1.722   7.484  0.4733  0.5202 -0.0183
 1600TIP3   OH221986   1.808   2.464   7.667 -0.0843 -0.3340  0.4860
 1600TIP3    H121987   1.857   2.539   7.633 -0.6230 -0.0007  0.4318
 1600TIP3    H221988   1.821   2.468   7.762 -1.2170  0.6415  0.6286
 1601TIP3   OH221989   6.385   1.540   7.093  0.4156 -0.6690 -0.3855
 1601TIP3    H121990   6.405   1.450   7.065 -1.8441 -1.9789  1.8704
 1601TIP3    H221991   6.433   1.551   7.175 -2.1148 -1.2173  1.2568
 1602TIP3   OH221992   1.419   0.129   7.265  0.1103  0.0416 -0.3436
 1602TIP3    H121993   1.326   0.139   7.244  0.6327  1.1364 -2.3769
 1602TIP3    H221994   1.464   0.147   7.183  2.1945  0.7533  0.8929
 1603TIP3   OH221995   2.785   2.294   0.879  0.6404 -0.4869 -0.2909
 1603TIP3    H121996   2.758   2.220   0.824 -1.1307 -0.5520  0.5984
 1603TIP3    H221997   2.733   2.368   0.847  0.6853 -0.1766  0.3437
 1604TIP3   OH221998   1.504   4.468   6.701  0.4608  0.0483 -0.1857
 1604TIP3    H121999   1.487   4.406   6.772 -1.5432  1.5041  0.6951
 1604TIP3    H222000   1.485   4.554   6.739  0.8301  1.0040 -2.0508
 1605TIP3   OH222001   1.671   0.980   6.276 -0.2326  0.2679  0.2940
 1605TIP3    H122002   1.680   0.894   6.316  0.2077 -0.4493 -1.2493
 1605TIP3    H222003   1.650   1.039   6.348  0.1354 -1.0131  1.4794
 1606TIP3   OH222004   5.327   2.011   7.318 -0.1667  0.3266  0.1529
 1606TIP3    H122005   5.337   1.916   7.316 -2.5472 -0.0714  1.8055
 1606TIP3    H222006   5.304   2.035   7.229  0.1199 -0.7119 -0.2080
 1607TIP3   OH222007   4.529   6.381   0.821 -0.1959  0.4422  0.3037
 1607TIP3    H122008   4.517   6.352   0.731  0.8117 -2.1691  0.9194
 1607TIP3    H222009   4.442   6.376   0.860 -0.6454  1.6302 -0.4854
 1608TIP3   OH222010   1.101   0.880   0.126 -0.3877  0.0442 -0.3777
 1608TIP3    H122011   1.043   0.949   0.094  2.1419  1.7266 -1.6258
 1608TIP3    H222012   1.105   0.817   0.054 -1.1161 -0.4268 -0.0254
 1609TIP3   OH222013   1.013   2.928   2.431  0.7053 -0.6048  0.3228
 1609TIP3    H122014   1.056   2.843   2.440  0.8986 -0.5061  0.3558
 1609TIP3    H222015   0.942   2.926   2.495  0.2676 -1.0119 -0.1711
 1610TIP3   OH222016   4.638   1.926   0.983 -0.2902 -0.0311  0.0552
 1610TIP3    H122017   4.562   1.880   0.947 -1.4945  2.7457 -1.1979
 1610TIP3    H222018   4.651   1.888   1.070 -2.3563 -1.3833 -0.1668
 1611TIP3   OH222019   4.578   1.723   1.406  0.0133 -0.5911 -0.0776
 1611TIP3    H122020   4.515   1.783   1.446  0.9535  0.0645  0.4607
 1611TIP3    H222021   4.525   1.653   1.370 -1.1386  0.5946 -0.7886
 1612TIP3   OH222022   1.590   3.319   7.517 -0.0484  0.0042 -0.2795
 1612TIP3    H122023   1.549   3.366   7.444 -0.1962 -0.6658 -0.6356
 1612TIP3    H222024   1.683   3.339   7.508 -0.1739  0.7072 -0.0702
 1613TIP3   OH222025   2.773   1.007   1.278 -0.0552 -0.3061  0.0631
 1613TIP3    H122026   2.857   0.975   1.244 -0.9967 -2.1262 -0.6772
 1613TIP3    H222027   2.720   0.928   1.288 -1.2599  0.6553  1.8096
 1614TIP3   OH222028   4.161   1.103   7.712  0.4267  0.1670 -0.0123
 1614TIP3    H122029   4.180   1.010   7.704 -0.5165 -0.0144 -0.2983
 1614TIP3    H222030   4.245   1.146   7.694  1.3392 -0.6496  1.9684
 1615TIP3   OH222031   5.680   0.853   7.367 -0.0366  0.0196 -0.1162
 1615TIP3    H122032   5.682   0.865   7.272 -0.3753  1.8775  0.0766
 1615TIP3    H222033   5.591   0.822   7.385 -0.4116  0.9573 -0.2923
 1616TIP3   OH222034   2.469   3.847   6.201 -0.2157  0.6064  0.7339
 1616TIP3    H122035   2.515   3.850   6.117 -0.4506 -0.3351  0.5611
 1616TIP3    H222036   2.397   3.909   6.191  1.4341  2.7200  1.2881
 1617TIP3   OH222037   1.461   5.984   6.747 -0.3374  0.1983 -0.1611
 1617TIP3    H122038   1.368   5.997   6.729 -0.5017  0.0994  0.5579
 1617TIP3    H222039   1.473   6.020   6.836  0.5712  1.3677 -0.7233
 1618TIP3   OH222040   2.884   6.438   0.923 -0.0926 -0.5554 -0.0780
 1618TIP3    H122041   2.905   6.492   1.000  1.2271 -0.7049 -0.3054
 1618TIP3    H222042   2.800   6.473   0.892 -0.6007 -0.4147  1.3505
 1619TIP3   OH222043   4.351   6.186   7.245  0.4570 -0.4483  0.3991
 1619TIP3    H122044   4.351   6.278   7.273  1.8615 -0.3035 -0.0349
 1619TIP3    H222045   4.281   6.182   7.180  0.4027  0.3229  0.3930
 1620TIP3   OH222046   4.996   3.196   6.616  0.1336  0.6466  0.1164
 1620TIP3    H122047   5.028   3.123   6.669  1.3572  2.2634  1.7058
 1620TIP3    H222048   4.938   3.245   6.674 -2.2722 -0.0543 -1.5379
 1621TIP3   OH222049   0.554   2.366   1.325 -0.0444 -0.1866  0.0772
 1621TIP3    H122050   0.507   2.334   1.248 -0.2331 -0.6423  0.3748
 1621TIP3    H222051   0.600   2.444   1.295 -3.4263  2.1862  0.4484
 1622TIP3   OH222052   3.570   0.423   0.022  0.2057  0.1936 -0.4898
 1622TIP3    H122053   3.634   0.369   0.068 -0.3467 -1.1272 -1.2117
 1622TIP3    H222054   3.566   0.385  -0.066 -1.5192  0.2625 -0.4780
 1623TIP3   OH222055   4.821   6.443   1.348  0.2940  0.5477  0.5328
 1623TIP3    H122056   4.815   6.536   1.369  0.8238  0.5228  0.7892
 1623TIP3    H222057   4.751   6.402   1.399  0.3294  0.7494  0.7419
 1624TIP3   OH222058   1.318   5.662   0.671  0.6035 -0.0356 -0.5502
 1624TIP3    H122059   1.315   5.596   0.601 -1.6866  0.3170 -0.8408
 1624TIP3    H222060   1.303   5.745   0.627  0.7411  0.3763  0.1650
 1625TIP3   OH222061   2.528   1.353   0.199  0.5108 -0.4157 -0.1220
 1625TIP3    H122062   2.601   1.352   0.260  0.7144  0.4587 -0.3418
 1625TIP3    H222063   2.557   1.297   0.127  0.8377 -0.3284 -0.0611
 1626TIP3   OH222064   2.093   4.527   2.098  0.0120 -0.1379 -0.0384
 1626TIP3    H122065   2.150   4.539   2.022  0.6675 -1.4717  0.2169
 1626TIP3    H222066   2.089   4.613   2.139  2.1347 -0.0659  0.1240
 1627TIP3   OH222067   4.374   2.018   5.566 -0.4564 -0.1615  0.1857
 1627TIP3    H122068   4.403   2.109   5.557 -0.6890 -0.1194 -0.1725
 1627TIP3    H222069   4.425   1.984   5.639  0.1810  0.0357 -0.1581
 1628TIP3   OH222070   0.978   4.532   5.644  0.1837 -0.1841  0.2309
 1628TIP3    H122071   0.996   4.439   5.658 -3.0674 -0.8767  0.6577
 1628TIP3    H222072   0.950   4.564   5.729 -0.4506  0.7109 -0.2998
 1629TIP3   OH222073   4.170   0.417   7.249 -0.0073 -0.4305  0.0589
 1629TIP3    H122074   4.147   0.332   7.212 -1.9779 -0.0606  0.3006
 1629TIP3    H222075   4.187   0.399   7.342  0.4800 -0.6881 -0.0781
 1630TIP3   OH222076   5.201   0.107   7.457  0.4673  0.0484  0.0764
 1630TIP3    H122077   5.288   0.114   7.418  0.3139  2.7644  0.0818
 1630TIP3    H222078   5.217   0.079   7.547  1.2646 -0.1282 -0.1133
 1631TIP3   OH222079   1.757   5.489   0.073 -0.1308 -0.2656  1.4019
 1631TIP3    H122080   1.702   5.509   0.149 -2.1446  0.3428 -0.1271
 1631TIP3    H222081   1.759   5.571   0.023  0.7603 -0.7813  0.5599
 1632TIP3   OH222082   3.849   2.431   5.954 -0.4591 -0.1371 -0.1346
 1632TIP3    H122083   3.768   2.391   5.923 -1.3765  0.5317  1.3376
 1632TIP3    H222084   3.883   2.478   5.877 -1.2328 -0.7656 -0.8817
 1633TIP3   OH222085   4.681   3.357   1.029 -0.7115  0.2351  0.3790
 1633TIP3    H122086   4.694   3.294   1.100  0.2970  0.3715  0.3303
 1633TIP3    H222087   4.632   3.308   0.963  1.4228 -1.0581 -0.3461
 1634TIP3   OH222088   4.241   3.200   1.411  0.4101  0.0314 -0.0640
 1634TIP3    H122089   4.252   3.117   1.365  0.9561 -0.1996  0.4673
 1634TIP3    H222090   4.230   3.175   1.503  0.7797  0.5480  0.1281
 1635TIP3   OH222091   2.528   5.239   1.969  0.3517 -0.2623  0.4267
 1635TIP3    H122092   2.554   5.148   1.974  0.5528 -0.3529 -1.5098
 1635TIP3    H222093   2.610   5.288   1.972  0.5244 -0.3413 -1.4764
 1636TIP3   OH222094   0.438   4.298   1.154  0.6349 -0.1482 -0.1535
 1636TIP3    H122095   0.397   4.229   1.101  0.5808 -0.3618  0.1684
 1636TIP3    H222096   0.529   4.270   1.164  0.1614 -1.2204  1.6812
 1637TIP3   OH222097   1.568   3.248   1.665 -0.2995 -0.3749  0.0954
 1637TIP3    H122098   1.576   3.328   1.717 -0.9142 -0.9453  1.0818
 1637TIP3    H222099   1.621   3.183   1.712  1.6781 -0.1353 -1.6457
 1638TIP3   OH222100   6.486   1.101   1.645  0.0626 -0.4162  0.0618
 1638TIP3    H122101   6.558   1.097   1.707  0.4232  0.5490 -0.2837
 1638TIP3    H222102   6.412   1.135   1.695  0.2146 -0.1201  0.0821
 1639TIP3   OH222103   0.224   5.713   1.285  0.7129 -0.5114  0.4172
 1639TIP3    H122104   0.319   5.704   1.286  0.7949  0.2114 -0.1311
 1639TIP3    H222105   0.193   5.633   1.243  1.2401  0.2401 -1.5196
 1640TIP3   OH222106   6.313   5.476   2.235 -0.3387  0.2007  0.3829
 1640TIP3    H122107   6.397   5.522   2.227  0.1756 -0.7071  0.3746
 1640TIP3    H222108   6.318   5.406   2.169 -1.3935  0.5541 -0.1031
 1641TIP3   OH222109   0.190   2.288   6.531 -0.0948  0.8476  0.0403
 1641TIP3    H122110   0.121   2.275   6.466  0.7129  0.2539 -0.7326
 1641TIP3    H222111   0.270   2.293   6.479  0.4814  1.1585  0.9423
 1642TIP3   OH222112   5.999   2.164   7.437 -0.1817 -0.3660 -0.0265
 1642TIP3    H122113   6.068   2.104   7.463  0.6834 -0.5855 -2.5819
 1642TIP3    H222114   5.965   2.129   7.355 -1.3950  1.2747 -0.2931
 1643TIP3   OH222115   2.659   1.644   2.196  0.2446 -0.9051 -0.5123
 1643TIP3    H122116   2.566   1.637   2.221  0.7481 -0.6294  1.5733
 1643TIP3    H222117   2.685   1.553   2.178  0.2921 -1.3904  1.7732
 1644TIP3   OH222118   5.875   6.395   7.205  0.1518  0.3696 -0.2181
 1644TIP3    H122119   5.906   6.485   7.220  1.2749 -0.1765  0.8456
 1644TIP3    H222120   5.785   6.395   7.238  1.0949  0.3753  2.6365
 1645TIP3   OH222121   5.211   2.562   1.851  0.0947  0.1506 -0.0211
 1645TIP3    H122122   5.248   2.630   1.907  1.5226 -2.1872  2.1543
 1645TIP3    H222123   5.120   2.555   1.879 -0.2808  1.6456 -0.8213
 1646TIP3   OH222124   5.310   6.003   1.260  0.1160  0.2351  0.0662
 1646TIP3    H122125   5.253   5.996   1.184 -0.0599 -0.2120  0.2358
 1646TIP3    H222126   5.255   6.043   1.328 -0.4488 -1.4440  0.6600
 1647TIP3   OH222127   0.450   5.333   1.204  0.3293 -0.5487  0.0462
 1647TIP3    H122128   0.508   5.258   1.217 -0.4287 -1.0178  0.8871
 1647TIP3    H222129   0.446   5.375   1.291  2.0942  1.5112 -0.7705
 1648TIP3   OH222130   0.951   2.072   6.111  0.0086 -0.0682  0.6885
 1648TIP3    H122131   0.965   2.044   6.020  0.5732  1.4223  0.2957
 1648TIP3    H222132   0.896   2.003   6.148  0.9454 -1.4563 -0.3580
 1649TIP3   OH222133   2.945   0.654   6.102  0.2855  0.0637 -0.5801
 1649TIP3    H122134   2.883   0.695   6.042 -0.4947 -0.8316 -0.4100
 1649TIP3    H222135   3.011   0.613   6.045 -0.3086 -0.5595 -0.8346
 1650TIP3   OH222136   0.574   0.701   7.600  0.2579  0.3751  0.4572
 1650TIP3    H122137   0.596   0.608   7.603  1.1790  0.6088  1.0254
 1650TIP3    H222138   0.640   0.744   7.653 -0.7209  1.2576  1.0101
 1651TIP3   OH222139   0.528   3.019   1.492  0.2552 -0.1684  0.0856
 1651TIP3    H122140   0.580   3.096   1.471  2.3489 -1.8675 -1.4165
 1651TIP3    H222141   0.437   3.046   1.478  1.0075  1.5720 -1.9414
 1652TIP3   OH222142   0.061   3.119   5.924 -0.0411  0.1017  0.5898
 1652TIP3    H122143   0.106   3.195   5.887  1.1582 -1.5028 -1.4603
 1652TIP3    H222144  -0.028   3.124   5.890  0.3866 -0.0566 -0.5898
 1653TIP3   OH222145   5.848   1.777   0.823 -0.8107  0.2338 -0.0721
 1653TIP3    H122146   5.855   1.809   0.913 -2.7129 -0.7141  0.4615
 1653TIP3    H222147   5.875   1.686   0.828  1.0082  0.6855 -0.8858
 1654TIP3   OH222148   5.818   6.026   7.156 -0.3952 -0.0139  0.0412
 1654TIP3    H122149   5.877   5.995   7.225  0.5717  0.0265 -0.7422
 1654TIP3    H222150   5.760   6.088   7.199 -0.1188 -0.3534  0.9181
 1655TIP3   OH222151   1.322   4.087   2.489  0.7433  0.0619  0.0607
 1655TIP3    H122152   1.373   4.015   2.452  0.6450 -0.1727  0.3775
 1655TIP3    H222153   1.301   4.143   2.414  0.7355 -0.2913 -0.2011
 1656TIP3   OH222154   4.081   4.327   5.817  0.1179  0.3058 -0.1958
 1656TIP3    H122155   4.091   4.323   5.722  0.8290 -0.4492 -0.0941
 1656TIP3    H222156   3.995   4.288   5.834  1.3275 -2.6208 -0.2927
 1657TIP3   OH222157   5.240   2.505   0.824  0.1778 -0.2211 -0.2782
 1657TIP3    H122158   5.167   2.473   0.771 -1.1478  1.3806  0.4785
 1657TIP3    H222159   5.264   2.588   0.784 -0.4095  0.6953  1.1935
 1658TIP3   OH222160   4.344   5.008   6.611 -0.2613 -0.4877 -0.3383
 1658TIP3    H122161   4.253   4.979   6.609 -0.5448  0.2144  1.2565
 1658TIP3    H222162   4.395   4.927   6.601 -1.0434 -0.9816 -0.4037
 1659TIP3   OH222163   1.046   1.212   7.231 -0.6629  0.2208  0.0632
 1659TIP3    H122164   0.987   1.139   7.212  0.0949 -0.2020 -0.8093
 1659TIP3    H222165   1.088   1.188   7.314  0.4779 -0.9828 -0.8051
 1660TIP3   OH222166   2.572   6.016   5.807 -0.1284 -0.0424 -0.0895
 1660TIP3    H122167   2.646   6.010   5.747 -0.6793 -1.2273 -0.6909
 1660TIP3    H222168   2.540   6.106   5.797  0.4111  0.0750 -0.8164
 1661TIP3   OH222169   5.289   2.730   7.220  0.3228 -0.7182 -0.1944
 1661TIP3    H122170   5.300   2.639   7.247 -0.1099 -0.6946  0.0758
 1661TIP3    H222171   5.202   2.733   7.180  1.2852 -0.9492 -2.4451
 1662TIP3   OH222172   2.010   1.474   4.094 -0.1521 -0.0090 -0.0152
 1662TIP3    H122173   1.919   1.490   4.117 -0.4254 -0.2243 -0.9096
 1662TIP3    H222174   2.024   1.523   4.014  0.4070 -0.3040 -0.1065
 1663TIP3   OH222175   5.624   4.145   0.605 -0.3749 -0.3283  0.8410
 1663TIP3    H122176   5.702   4.104   0.568 -0.8657 -0.7977  0.2928
 1663TIP3    H222177   5.551   4.092   0.571 -1.0040  0.7547  0.4480
 1664TIP3   OH222178   4.006   3.914   5.378  0.5145 -0.4741 -0.2778
 1664TIP3    H122179   3.924   3.885   5.340  0.8360 -0.4388 -1.0100
 1664TIP3    H222180   3.990   4.006   5.402  0.9892  0.2386 -2.4431
 1665TIP3   OH222181   0.085   2.929   7.003 -0.5507  0.0246  0.0631
 1665TIP3    H122182   0.040   2.991   7.060 -1.4137  2.1715 -2.7218
 1665TIP3    H222183   0.041   2.938   6.919 -0.3454 -4.0623 -0.6784
 1666TIP3   OH222184   1.325   3.636   1.019 -0.5202  0.2394 -0.3985
 1666TIP3    H122185   1.341   3.663   1.110 -3.3821 -1.1992  0.6774
 1666TIP3    H222186   1.262   3.699   0.985 -1.1766 -0.5049 -0.5888
 1667TIP3   OH222187   3.129   1.139   0.294  0.3486 -0.0789 -0.2922
 1667TIP3    H122188   3.181   1.199   0.241 -0.6616  0.6720 -0.4538
 1667TIP3    H222189   3.187   1.064   0.308  1.4373  0.6926 -0.5317
 1668TIP3   OH222190   2.355   2.789   0.438  0.0876 -0.5080 -0.0981
 1668TIP3    H122191   2.344   2.727   0.366 -1.1840 -0.2965 -0.1200
 1668TIP3    H222192   2.273   2.783   0.488  0.5650  0.0380  0.7815
 1669TIP3   OH222193   0.200   5.318   7.017 -0.4971 -0.5739 -0.2550
 1669TIP3    H122194   0.185   5.272   7.100  0.7678 -1.5415 -0.5251
 1669TIP3    H222195   0.289   5.352   7.025 -1.0990  1.1088 -0.4279
 1670TIP3   OH222196   0.482   2.644   0.682  0.1117  0.2793 -0.2782
 1670TIP3    H122197   0.533   2.565   0.664  0.1727  0.3218 -0.2969
 1670TIP3    H222198   0.403   2.635   0.629  1.1856  1.3213 -2.1716
 1671TIP3   OH222199   5.741   1.153   7.569  0.4254 -0.3634  0.3808
 1671TIP3    H122200   5.808   1.173   7.635 -1.6666 -0.0784  2.5512
 1671TIP3    H222201   5.724   1.059   7.580  0.3672 -0.4074 -0.0774
 1672TIP3   OH222202   6.166   6.201   1.547  0.1013  0.1241  0.3128
 1672TIP3    H122203   6.204   6.273   1.596 -1.2879  1.5490 -0.6314
 1672TIP3    H222204   6.073   6.204   1.566 -0.0096 -1.3792  0.1633
 1673TIP3   OH222205   6.420   5.104   0.509 -0.2321  0.3100  0.2374
 1673TIP3    H122206   6.349   5.134   0.453 -0.5280 -0.0576  0.4134
 1673TIP3    H222207   6.485   5.069   0.448  0.8476  2.6918 -0.1123
 1674TIP3   OH222208   0.853   2.019   0.514 -0.4868 -0.0441  0.3010
 1674TIP3    H122209   0.904   2.064   0.447 -0.6089  0.3114  0.4421
 1674TIP3    H222210   0.865   1.926   0.496 -1.7717  0.0381 -1.1670
 1675TIP3   OH222211   0.528   1.595   0.597 -0.1445  0.2361 -0.6647
 1675TIP3    H122212   0.598   1.584   0.532 -1.3840 -2.0617 -1.7340
 1675TIP3    H222213   0.477   1.670   0.567 -0.5289 -0.6196 -2.2165
 1676TIP3   OH222214   4.102   3.088   7.086 -0.2247  0.0415  0.1173
 1676TIP3    H122215   4.018   3.093   7.132 -0.8815  1.3416 -1.1674
 1676TIP3    H222216   4.093   3.010   7.031 -0.4349 -0.0479  0.2732
 1677TIP3   OH222217   3.153   4.209   6.294  0.2753  0.2991 -0.0347
 1677TIP3    H122218   3.106   4.233   6.214  0.1419  2.5634  0.6492
 1677TIP3    H222219   3.087   4.164   6.348 -0.5298  1.5087  0.0312
 1678TIP3   OH222220   3.531   2.305   1.041  0.1552 -0.5209 -0.9379
 1678TIP3    H122221   3.600   2.372   1.043  0.6144 -0.9833 -0.9418
 1678TIP3    H222222   3.577   2.223   1.060 -0.2707 -0.9473 -1.7030
 1679TIP3   OH222223   2.956   6.211   6.499  0.2985 -0.3932  0.5012
 1679TIP3    H122224   3.031   6.177   6.549  0.3239 -0.0167  0.7167
 1679TIP3    H222225   2.902   6.133   6.482  0.6534 -0.6394  0.4901
 1680TIP3   OH222226   2.972   3.362   5.733 -0.2981 -0.1879  0.6429
 1680TIP3    H122227   2.968   3.458   5.728 -1.2443 -0.2192  0.5254
 1680TIP3    H222228   2.904   3.339   5.796 -0.2997 -0.8054  0.4156
 1681TIP3   OH222229   2.237   2.701   2.107  0.1197  0.1044  0.2994
 1681TIP3    H122230   2.209   2.656   2.187 -2.3702  0.6076 -0.1900
 1681TIP3    H222231   2.327   2.728   2.124 -0.8228  1.7099  3.6795
 1682TIP3   OH222232   4.345   6.286   6.209  0.7296 -0.1944 -0.0934
 1682TIP3    H122233   4.257   6.299   6.172  0.2522 -0.1475  1.0044
 1682TIP3    H222234   4.393   6.364   6.183 -0.2799  0.9328  1.2498
 1683TIP3   OH222235   5.263   3.170   6.524  0.1659  0.0230 -0.2749
 1683TIP3    H122236   5.169   3.184   6.540 -0.3301 -3.1790  0.1979
 1683TIP3    H222237   5.302   3.256   6.542 -2.7526  1.8721 -1.8386
 1684TIP3   OH222238   4.105   1.058   1.632 -0.6623 -0.0820  0.2260
 1684TIP3    H122239   4.079   1.105   1.553 -1.6957  1.2630  1.3073
 1684TIP3    H222240   4.023   1.035   1.674 -0.1415  0.5530  1.6450
 1685TIP3   OH222241   0.065   3.242   0.428  0.3141 -0.4512 -0.3395
 1685TIP3    H122242   0.067   3.333   0.399 -0.7743 -0.0965  0.6690
 1685TIP3    H222243  -0.003   3.201   0.374  0.1905 -0.4583 -0.1769
 1686TIP3   OH222244   3.652   0.126   7.322 -0.0149  0.1147  0.3040
 1686TIP3    H122245   3.677   0.103   7.233  2.4117  1.4226  0.5429
 1686TIP3    H222246   3.623   0.044   7.361 -1.6117 -0.3952 -1.7913
 1687TIP3   OH222247   6.050   4.826   7.689  0.2264  0.5028 -0.1868
 1687TIP3    H122248   5.959   4.857   7.688  0.4674  1.2266 -1.2378
 1687TIP3    H222249   6.066   4.797   7.600  0.3105 -1.8602  0.5341
 1688TIP3   OH222250   1.729   3.055   7.415  0.2738  0.0963 -0.6803
 1688TIP3    H122251   1.747   2.964   7.439 -0.2660 -0.0137 -0.6881
 1688TIP3    H222252   1.635   3.058   7.400  0.2734  0.6784 -0.5863
 1689TIP3   OH222253   1.436   2.821   0.106 -0.2252  0.1429 -0.2806
 1689TIP3    H122254   1.369   2.760   0.075 -0.1473  0.6596 -1.5265
 1689TIP3    H222255   1.448   2.883   0.034 -0.9699  2.2288  1.2573
 1690TIP3   OH222256   6.471   5.767   0.270 -0.1486 -0.5465  0.3529
 1690TIP3    H122257   6.430   5.742   0.187 -0.9410  0.2798  0.4841
 1690TIP3    H222258   6.544   5.823   0.245 -0.0663 -0.7247  0.1900
 1691TIP3   OH222259   3.790   4.122   6.338 -0.5240 -0.2929 -0.4798
 1691TIP3    H122260   3.879   4.116   6.303 -0.5789 -0.8927 -0.5161
 1691TIP3    H222261   3.737   4.070   6.278 -1.0158  0.5704 -0.8159
 1692TIP3   OH222262   1.787   3.294   5.545  0.1481 -0.0518 -0.4081
 1692TIP3    H122263   1.697   3.265   5.558  0.8079 -1.5609  1.2603
 1692TIP3    H222264   1.789   3.327   5.455 -1.6773 -1.4802 -1.0378
 1693TIP3   OH222265   4.556   3.390   0.059 -0.0682 -0.4177 -0.1831
 1693TIP3    H122266   4.483   3.361   0.112  0.8504  0.4118  1.6257
 1693TIP3    H222267   4.527   3.378  -0.032 -2.2214 -0.5651  0.4824
 1694TIP3   OH222268   0.017   1.828   1.099 -0.0063 -0.2088 -0.1700
 1694TIP3    H122269  -0.024   1.865   1.177  1.5081 -1.3654  1.2407
 1694TIP3    H222270  -0.010   1.886   1.028 -3.2768 -0.3778  0.7788
 1695TIP3   OH222271   2.475   3.300   6.683  0.0573 -0.0262 -0.2523
 1695TIP3    H122272   2.483   3.386   6.641 -2.0261  0.0763 -0.5387
 1695TIP3    H222273   2.423   3.248   6.621  0.2382 -1.0954  0.4765
 1696TIP3   OH222274   2.363   1.853   7.622 -0.1182 -0.2535 -0.1388
 1696TIP3    H122275   2.426   1.923   7.640  0.9494 -0.9433 -1.0660
 1696TIP3    H222276   2.379   1.789   7.691 -1.3950  0.5808  0.9681
 1697TIP3   OH222277   5.480   3.078   6.823 -0.7095 -0.1565  0.0683
 1697TIP3    H122278   5.562   3.036   6.852 -0.4430  1.0221  1.1078
 1697TIP3    H222279   5.500   3.171   6.821 -2.0709  0.1645  0.4751
 1698TIP3   OH222280   2.441   3.372   5.712  0.0636  0.0147  0.1330
 1698TIP3    H122281   2.490   3.453   5.724 -0.2306  0.3512 -0.7969
 1698TIP3    H222282   2.367   3.379   5.772  0.1788  0.3277  0.2388
 1699TIP3   OH222283   1.268   3.034   1.895 -0.3490  0.2440  0.4005
 1699TIP3    H122284   1.226   2.951   1.918 -0.1472  0.3216  1.1010
 1699TIP3    H222285   1.336   3.010   1.833  1.2484 -0.4819  2.3015
 1700TIP3   OH222286   1.444   2.987   7.634  0.6121 -0.2422  0.0288
 1700TIP3    H122287   1.355   3.000   7.664  1.4225  0.0258  2.5786
 1700TIP3    H222288   1.452   3.040   7.554 -1.2087  0.4696  0.2914
 1701TIP3   OH222289   5.211   3.857   0.545 -0.0524 -0.6372 -0.1466
 1701TIP3    H122290   5.183   3.837   0.456 -0.3772  1.7750 -0.6515
 1701TIP3    H222291   5.144   3.916   0.579  2.3184  2.2521 -0.0384
 1702TIP3   OH222292   2.392   3.523   7.125  0.0366  0.8051  0.5565
 1702TIP3    H122293   2.420   3.443   7.081  0.1463 -0.2932  2.5272
 1702TIP3    H222294   2.469   3.579   7.124  0.4441  0.2469  0.5782
 1703TIP3   OH222295   0.649   0.284   0.124 -0.3540 -0.0040 -0.2032
 1703TIP3    H122296   0.598   0.208   0.154 -0.3248  0.0841  0.0763
 1703TIP3    H222297   0.728   0.246   0.085 -0.4350 -0.1244 -0.2530
 1704TIP3   OH222298   6.258   0.821   6.198  0.0881 -0.0106  0.2270
 1704TIP3    H122299   6.164   0.817   6.182  0.0720  0.7771  0.0588
 1704TIP3    H222300   6.272   0.767   6.276 -0.5869  0.3096  0.5812
 1705TIP3   OH222301   1.271   2.397   2.208 -0.2265  0.8253 -0.0041
 1705TIP3    H122302   1.234   2.480   2.239 -1.0568  0.1524  0.8832
 1705TIP3    H222303   1.198   2.354   2.164 -0.8226 -0.8364  2.3812
 1706TIP3   OH222304   3.983   3.641   0.525 -0.1844 -0.2667  0.0936
 1706TIP3    H122305   4.067   3.683   0.545 -0.3101  0.9614 -1.7471
 1706TIP3    H222306   3.926   3.664   0.598  0.2893  1.2533  0.0036
 1707TIP3   OH222307   3.551   6.462   6.608 -0.2147  0.6069  0.1973
 1707TIP3    H122308   3.478   6.433   6.664 -0.5532 -0.5587 -0.7975
 1707TIP3    H222309   3.528   6.552   6.584 -1.7793  0.0077 -0.7445
 1708TIP3   OH222310   3.293   6.023   6.239  0.4330  0.0512  0.3685
 1708TIP3    H122311   3.243   6.100   6.268  1.4352  0.3836  1.2453
 1708TIP3    H222312   3.333   6.050   6.157  0.4835  0.3359  0.4871
 1709TIP3   OH222313   3.483   0.498   0.677 -0.3718  0.0601 -0.1567
 1709TIP3    H122314   3.569   0.490   0.717  0.6130 -1.7027 -2.3878
 1709TIP3    H222315   3.425   0.447   0.733 -0.0863  1.4946  1.5220
 1710TIP3   OH222316   3.305   4.846   6.515  0.3793 -0.5739  0.0366
 1710TIP3    H122317   3.318   4.873   6.606  0.0014 -3.1571  0.9290
 1710TIP3    H222318   3.215   4.814   6.513  0.0477  0.3582 -1.5335
 1711TIP3   OH222319   6.344   0.387   0.940  0.5008 -0.4654  0.4299
 1711TIP3    H122320   6.367   0.478   0.955  0.9980 -0.4381 -0.4362
 1711TIP3    H222321   6.257   0.390   0.901  0.1445 -0.4185  1.2121
 1712TIP3   OH222322   3.921   1.574   0.073  0.2607 -0.5400 -0.5064
 1712TIP3    H122323   3.874   1.656   0.060 -0.6666 -0.3746  2.8658
 1712TIP3    H222324   3.853   1.506   0.071  0.8884 -1.1551 -2.3162
 1713TIP3   OH222325   1.874   6.215   6.065  0.3940  0.6139 -0.4417
 1713TIP3    H122326   1.779   6.225   6.067  0.0431 -1.9284 -0.7706
 1713TIP3    H222327   1.903   6.274   5.995 -1.1241  0.3444 -1.3379
 1714TIP3   OH222328   4.546   3.766   7.603 -0.0444  0.2894  0.4004
 1714TIP3    H122329   4.501   3.850   7.603  0.5194  0.6044 -0.1142
 1714TIP3    H222330   4.482   3.704   7.636 -1.2214  0.5293 -1.3371
 1715TIP3   OH222331   3.753   2.836   6.342 -0.4242  0.4657 -0.0267
 1715TIP3    H122332   3.731   2.795   6.258  0.0961 -0.3821  0.2295
 1715TIP3    H222333   3.849   2.839   6.343 -0.3165 -1.1785  1.2474
 1716TIP3   OH222334   2.194   5.323   6.649  0.5903  0.0522  0.5429
 1716TIP3    H122335   2.129   5.285   6.590  1.4273 -1.7698  0.7503
 1716TIP3    H222336   2.207   5.412   6.615 -1.0271  0.0119 -0.2823
 1717TIP3   OH222337   5.272   4.096   1.112 -0.2124 -0.3754 -0.0012
 1717TIP3    H122338   5.301   4.184   1.089 -0.5012 -0.3701 -0.3591
 1717TIP3    H222339   5.352   4.052   1.141 -0.1216  0.0901  0.4762
 1718TIP3   OH222340   0.460   4.245   7.218  0.3433 -0.3769 -0.0687
 1718TIP3    H122341   0.412   4.293   7.286 -1.2349  0.4596 -1.6874
 1718TIP3    H222342   0.552   4.268   7.233  0.0640 -0.3881  1.8878
 1719TIP3   OH222343   5.001   4.109   0.151  0.1277  0.3242 -0.1026
 1719TIP3    H122344   4.933   4.046   0.127  0.1326 -0.5006  1.8342
 1719TIP3    H222345   5.080   4.075   0.110 -0.1434 -0.1551 -0.2467
 1720TIP3   OH222346   4.588   5.929   6.495 -0.5907  0.2791 -0.8891
 1720TIP3    H122347   4.560   6.008   6.449 -0.8374  0.3963 -0.5420
 1720TIP3    H222348   4.530   5.860   6.464  1.7748 -0.5922 -3.8553
 1721TIP3   OH222349   5.904   4.448   6.294  0.1903  0.5907  0.0773
 1721TIP3    H122350   5.830   4.469   6.351 -0.7856  0.1573 -0.9914
 1721TIP3    H222351   5.978   4.497   6.332 -0.5942  0.9143  1.2484
 1722TIP3   OH222352   5.032   2.817   0.501 -0.0049 -0.4397 -0.5912
 1722TIP3    H122353   5.006   2.737   0.455 -0.7721 -0.6867  0.2472
 1722TIP3    H222354   5.120   2.798   0.534  0.4938 -0.3216 -1.7796
 1723TIP3   OH222355   1.215   6.338   6.557 -0.5168 -0.3440  0.4395
 1723TIP3    H122356   1.207   6.276   6.485 -2.0678  0.0863  0.2038
 1723TIP3    H222357   1.306   6.331   6.585 -0.1696 -1.3071 -0.8466
 1724TIP3   OH222358   5.590   6.557   6.608 -0.1339 -0.8017 -0.2864
 1724TIP3    H122359   5.570   6.465   6.591 -1.1770 -0.4857 -0.8130
 1724TIP3    H222360   5.512   6.604   6.582 -0.5522  0.0541  2.2355
 1725TIP3   OH222361   5.503   4.631   2.185  0.2335 -0.2607 -0.4318
 1725TIP3    H122362   5.592   4.598   2.199 -0.3848 -1.5878  0.6415
 1725TIP3    H222363   5.492   4.699   2.251  0.4025 -0.1961 -0.4701
 1726TIP3   OH222364   3.419   4.545   0.297 -0.0718 -0.3470 -0.3857
 1726TIP3    H122365   3.373   4.509   0.372 -0.1821  0.3237 -0.1186
 1726TIP3    H222366   3.497   4.587   0.334 -0.7910  1.1344 -0.4652
 1727TIP3   OH222367   1.414   2.621   1.822 -0.2264 -0.4718  0.0281
 1727TIP3    H122368   1.484   2.598   1.761  0.3372 -0.1991  0.5608
 1727TIP3    H222369   1.373   2.537   1.843 -1.4110 -0.4175 -1.8587
 1728TIP3   OH222370   0.321   5.596   6.189  0.7695  0.5836 -0.5949
 1728TIP3    H122371   0.378   5.546   6.248 -0.7990  0.8039  1.1770
 1728TIP3    H222372   0.371   5.601   6.107  3.4646  1.0897  0.9568
 1729TIP3   OH222373   1.769   4.758   0.110 -0.5214 -0.3993 -0.0747
 1729TIP3    H122374   1.806   4.716   0.032 -2.7127 -0.2355 -1.3070
 1729TIP3    H222375   1.799   4.849   0.104 -0.5649 -0.4181 -0.6725
 1730TIP3   OH222376   0.427   5.073   7.570 -0.2515 -0.5596  0.3133
 1730TIP3    H122377   0.408   5.137   7.638 -1.8726 -0.8734  0.1942
 1730TIP3    H222378   0.415   4.988   7.612 -3.0528 -0.7763 -0.7301
 1731TIP3   OH222379   1.840   2.736   6.132 -0.0184  0.4440  0.2961
 1731TIP3    H122380   1.840   2.641   6.119 -0.6821  0.4935 -0.1132
 1731TIP3    H222381   1.774   2.751   6.199 -0.0858  0.6393  0.1852
 1732TIP3   OH222382   0.812   0.542   6.370  0.6912 -0.6849  0.5236
 1732TIP3    H122383   0.724   0.576   6.388 -0.4814 -2.9475 -0.5557
 1732TIP3    H222384   0.851   0.609   6.313 -0.7360 -0.1453  0.1297
 1733TIP3   OH222385   3.842   2.823   0.671  0.0643 -0.6284  0.8485
 1733TIP3    H122386   3.854   2.777   0.754 -2.0950 -3.7518 -0.3644
 1733TIP3    H222387   3.766   2.781   0.631 -1.2089  3.1456 -1.1993
 1734TIP3   OH222388   3.756   3.261   5.449  0.1271  0.2609  0.0859
 1734TIP3    H122389   3.783   3.174   5.475  0.6756  0.0861 -0.9998
 1734TIP3    H222390   3.672   3.275   5.493  0.4949 -0.4235  1.0225
 1735TIP3   OH222391   3.129   2.699   6.070 -0.5764  0.2428  0.6285
 1735TIP3    H122392   3.200   2.677   6.129 -0.3030 -1.7290 -0.3383
 1735TIP3    H222393   3.168   2.696   5.983 -1.6238  0.0652  0.1447
 1736TIP3   OH222394   1.663   4.166   1.120 -0.4428 -0.4821  0.4813
 1736TIP3    H122395   1.744   4.193   1.162  0.9168 -0.4139 -1.9798
 1736TIP3    H222396   1.602   4.238   1.136 -0.0957 -0.5736  2.4387
 1737TIP3   OH222397   3.715   1.669   1.269  0.0036 -0.2888  0.0807
 1737TIP3    H122398   3.711   1.646   1.362  0.6022  0.4064  0.2857
 1737TIP3    H222399   3.809   1.675   1.250 -0.1195  0.6547 -0.2925
 1738TIP3   OH222400   4.524   3.055   0.595  0.1429  0.6307 -0.3571
 1738TIP3    H122401   4.530   3.075   0.502 -0.3019 -1.7173 -0.9554
 1738TIP3    H222402   4.472   2.975   0.599  0.5021  0.4428  1.8862
 1739TIP3   OH222403   4.088   5.471   2.022  0.5506  0.5741  0.1926
 1739TIP3    H122404   4.069   5.389   2.068  3.4915 -0.1831  0.3066
 1739TIP3    H222405   4.007   5.494   1.978 -1.4732 -0.4090  3.0984
 1740TIP3   OH222406   1.599   5.907   6.438  0.5550 -0.3039 -0.0284
 1740TIP3    H122407   1.684   5.877   6.405  0.0852 -0.7219 -0.8971
 1740TIP3    H222408   1.600   6.002   6.423  2.2053  0.3241  3.0887
 1741TIP3   OH222409   1.359   3.774   0.230 -0.2596  0.0815  1.2556
 1741TIP3    H122410   1.341   3.866   0.249  0.8999  0.4797  0.5238
 1741TIP3    H222411   1.452   3.763   0.250 -0.7063 -1.3228  2.7566
 1742TIP3   OH222412   4.894   1.925   0.262  0.0659 -0.5742  0.1428
 1742TIP3    H122413   4.875   2.017   0.275  1.8559  0.0137 -0.9718
 1742TIP3    H222414   4.814   1.888   0.225 -1.2717  0.0862  2.2480
 1743TIP3   OH222415   5.586   5.321   0.315  0.0129  0.3843  0.2760
 1743TIP3    H122416   5.559   5.323   0.224 -0.6305  1.1745  0.4707
 1743TIP3    H222417   5.528   5.384   0.359 -0.0792 -0.4156  1.3358
 1744TIP3   OH222418   2.768   3.594   7.474 -0.4852  0.7264  0.0587
 1744TIP3    H122419   2.679   3.625   7.453  0.5166  3.8395 -0.1015
 1744TIP3    H222420   2.817   3.607   7.393  0.2941 -0.3289  0.3494
 1745TIP3   OH222421   0.785   1.048   1.168 -0.1185  0.6081 -0.1913
 1745TIP3    H122422   0.733   1.111   1.119 -0.5803 -0.6149 -1.3268
 1745TIP3    H222423   0.790   1.084   1.257 -0.8308  1.9457 -0.6769
 1746TIP3   OH222424   5.515   6.554   7.340  0.4868  0.1428  0.2557
 1746TIP3    H122425   5.458   6.579   7.267  0.2915 -2.9589 -0.7895
 1746TIP3    H222426   5.595   6.605   7.326  0.0543  0.4120 -1.5316
 1747TIP3   OH222427   0.031   5.251   1.676 -0.4420  0.2206  0.1105
 1747TIP3    H122428   0.081   5.225   1.753  1.3556  1.3437 -0.6252
 1747TIP3    H222429  -0.053   5.281   1.711  0.3970  0.8441  1.6683
 1748TIP3   OH222430   2.358   4.852   6.274  0.2715  0.1991  0.0722
 1748TIP3    H122431   2.441   4.806   6.262  0.0823 -0.6282  1.6833
 1748TIP3    H222432   2.327   4.868   6.185  1.4543 -0.7638 -0.5496
 1749TIP3   OH222433   1.467   1.203   6.822 -0.3137 -0.3452 -0.8085
 1749TIP3    H122434   1.504   1.119   6.849  0.2091  1.2579  4.6075
 1749TIP3    H222435   1.542   1.260   6.808 -0.6977  0.0002 -1.5481
 1750TIP3   OH222436   6.261   0.654   6.412 -0.3987 -0.4355 -0.7146
 1750TIP3    H122437   6.259   0.570   6.367  0.2368 -1.2862  0.7537
 1750TIP3    H222438   6.309   0.637   6.493  0.3575  1.5119 -0.6872
 1751TIP3   OH222439   6.481   4.618   1.085  1.2525  0.2938 -0.2929
 1751TIP3    H122440   6.493   4.709   1.059 -0.6665  0.4975 -0.6108
 1751TIP3    H222441   6.441   4.622   1.171  1.9493 -0.2799  0.0695
 1752TIP3   OH222442   4.449   0.447   0.433  0.1323  0.2395 -0.3858
 1752TIP3    H122443   4.407   0.523   0.392  1.0906  0.8898 -0.2075
 1752TIP3    H222444   4.439   0.377   0.369 -1.1110  0.3905 -0.3923
 1753TIP3   OH222445   5.447   0.889   6.278  0.5171  0.3328 -0.0770
 1753TIP3    H122446   5.368   0.834   6.280 -0.0467  1.1246 -0.1475
 1753TIP3    H222447   5.431   0.956   6.345  1.6483 -0.1732  0.7442
 1754TIP3   OH222448   4.439   3.826   7.228 -0.3411  0.2661  0.0605
 1754TIP3    H122449   4.404   3.737   7.217 -1.8781  0.6572  1.2685
 1754TIP3    H222450   4.522   3.814   7.274 -0.2292 -0.5731 -0.3438
 1755TIP3   OH222451   5.411   0.617   7.152 -0.1204  0.6251  0.1185
 1755TIP3    H122452   5.431   0.708   7.130  1.0937  0.4020  0.2012
 1755TIP3    H222453   5.494   0.582   7.186 -0.7181 -0.3517  0.6112
 1756TIP3   OH222454   1.703   1.669   3.835 -0.2343 -1.0447  0.5575
 1756TIP3    H122455   1.794   1.679   3.805 -0.0329 -1.1277  1.1184
 1756TIP3    H222456   1.697   1.725   3.912 -0.8988 -0.4195  0.0554
 1757TIP3   OH222457   1.477   1.594   2.214 -0.6457 -0.0707 -0.1429
 1757TIP3    H122458   1.412   1.539   2.171  0.2531 -0.3100 -1.2305
 1757TIP3    H222459   1.495   1.550   2.297 -0.0845 -1.3463 -0.9073
 1758TIP3   OH222460   2.748   4.123   1.923  0.2594 -0.5917  0.5306
 1758TIP3    H122461   2.670   4.101   1.974 -0.1543  1.6931  0.9899
 1758TIP3    H222462   2.730   4.090   1.835 -1.6041  0.5338  0.4331
 1759TIP3   OH222463   2.097   1.139   6.189  0.9168 -0.6636 -0.4577
 1759TIP3    H122464   2.181   1.182   6.206  0.4824 -0.6776  2.0360
 1759TIP3    H222465   2.114   1.046   6.203  0.3754 -0.6081  0.6752
 1760TIP3   OH222466   2.353   5.343   1.323  0.3910  0.4358  0.4126
 1760TIP3    H122467   2.404   5.424   1.328  2.3585 -0.7216  0.0187
 1760TIP3    H222468   2.337   5.331   1.229 -0.9192  0.9530  0.5558
 1761TIP3   OH222469   5.626   6.343   6.936 -0.6107 -0.2957 -0.2274
 1761TIP3    H122470   5.633   6.309   7.026 -1.7109 -0.4990 -0.2074
 1761TIP3    H222471   5.533   6.362   6.925 -0.4742 -0.2219 -1.3140
 1762TIP3   OH222472   3.738   0.460   0.740 -0.0096 -0.3600 -0.1939
 1762TIP3    H122473   3.764   0.527   0.803 -1.9069 -0.6167  0.9195
 1762TIP3    H222474   3.762   0.377   0.781 -0.4987 -0.4902 -0.1613
 1763TIP3   OH222475   5.937   5.308   6.764  0.6427 -0.5751  0.4825
 1763TIP3    H122476   6.022   5.265   6.749  0.7539 -0.5975  1.1582
 1763TIP3    H222477   5.954   5.368   6.836  0.2875  0.0316  0.0595
 1764TIP3   OH222478   5.515   4.420   0.621  0.4785 -0.2912  0.2066
 1764TIP3    H122479   5.536   4.330   0.594  0.0005 -0.4798  0.4564
 1764TIP3    H222480   5.600   4.458   0.645  0.6408 -0.7982  0.4568
 1765TIP3   OH222481   1.369   5.190   0.868  0.4484  0.3227 -0.1804
 1765TIP3    H122482   1.275   5.196   0.852  0.2336  2.2885  1.3193
 1765TIP3    H222483   1.401   5.131   0.801 -1.6048  0.8965 -1.8042
 1766TIP3   OH222484   6.421   3.273   0.553 -0.1105  0.4291 -0.3339
 1766TIP3    H122485   6.356   3.333   0.590  0.6080  1.6987 -1.0767
 1766TIP3    H222486   6.460   3.231   0.630 -1.2976  0.1742  0.1536
 1767TIP3   OH222487   4.265   2.632   0.248  0.0758  0.3016  0.0939
 1767TIP3    H122488   4.309   2.717   0.257  1.3590 -0.4220  0.8663
 1767TIP3    H222489   4.204   2.645   0.175  0.3227  1.8499  0.1217
 1768TIP3   OH222490   3.119   3.184   7.378  0.3293 -0.6141  0.0633
 1768TIP3    H122491   3.026   3.190   7.353  0.5547  1.2736 -0.4600
 1768TIP3    H222492   3.141   3.092   7.363 -1.2197 -0.9105 -0.6755
 1769TIP3   OH222493   2.179   3.947   0.600 -0.0536 -0.4667  0.2138
 1769TIP3    H122494   2.086   3.930   0.616  0.1004 -2.3512 -0.5880
 1769TIP3    H222495   2.180   4.001   0.521 -0.4764 -0.1799  0.4040
 1770TIP3   OH222496   1.788   3.613   7.469  0.2581  0.4645 -0.4942
 1770TIP3    H122497   1.704   3.630   7.513  0.0375 -0.6309 -0.4508
 1770TIP3    H222498   1.792   3.678   7.399 -0.8001  0.3249 -0.7072
 1771TIP3   OH222499   6.361   4.865   2.293  0.7389 -0.6018  0.7582
 1771TIP3    H122500   6.417   4.819   2.355 -0.4988 -1.3704  1.3413
 1771TIP3    H222501   6.277   4.875   2.339  0.2496  0.1033 -0.2555
 1772TIP3   OH222502   2.405   3.232   1.118  0.8452 -0.0192  0.2913
 1772TIP3    H122503   2.465   3.306   1.104  1.1898 -0.3096  0.2101
 1772TIP3    H222504   2.458   3.168   1.165  1.0095 -0.8170 -0.9307
 1773TIP3   OH222505   1.926   6.122   7.078  0.4078  0.7974 -0.5876
 1773TIP3    H122506   1.935   6.134   7.172 -0.6085  0.9334 -0.4988
 1773TIP3    H222507   2.015   6.125   7.044  0.8122  0.3019  0.4232
 1774TIP3   OH222508   0.364   3.300   6.394 -0.0787  0.1646  0.3070
 1774TIP3    H122509   0.413   3.227   6.357  0.1038  0.5864 -0.2993
 1774TIP3    H222510   0.328   3.266   6.476  0.6539 -0.3678  0.4220
 1775TIP3   OH222511   2.115   1.228   4.555 -0.7644 -0.4929  0.0449
 1775TIP3    H122512   2.100   1.163   4.623 -1.7965 -0.0407  0.2645
 1775TIP3    H222513   2.193   1.275   4.583 -0.0546 -1.5502 -0.0681
 1776TIP3   OH222514   3.299   3.698   1.299 -0.1682 -0.1276 -0.5921
 1776TIP3    H122515   3.249   3.778   1.281 -0.7208  0.1567  1.8359
 1776TIP3    H222516   3.390   3.722   1.281 -0.4805  0.5581 -1.3440
 1777TIP3   OH222517   3.750   2.576   1.731  0.5128  0.2096  0.0651
 1777TIP3    H122518   3.794   2.537   1.806  1.0874 -0.2377 -0.4948
 1777TIP3    H222519   3.677   2.516   1.712  0.7723 -0.0370 -0.1524
 1778TIP3   OH222520   0.225   2.458   0.212  0.0016 -0.0303  0.4432
 1778TIP3    H122521   0.212   2.501   0.128 -3.2018 -1.1344  0.2246
 1778TIP3    H222522   0.214   2.527   0.277  2.0755  0.7424  0.0692
 1779TIP3   OH222523   0.279   6.184   7.648  0.7418  0.2473 -0.8372
 1779TIP3    H122524   0.243   6.101   7.617 -0.6545  0.1967  0.8021
 1779TIP3    H222525   0.322   6.221   7.571  0.3257 -1.4082 -1.9253
 1780TIP3   OH222526   2.593   5.164   0.135  0.1453  0.1073  0.3644
 1780TIP3    H122527   2.670   5.108   0.126 -0.1826 -0.3615  0.4430
 1780TIP3    H222528   2.627   5.245   0.173  0.8979  0.6153 -1.3288
 1781TIP3   OH222529   6.570   3.218   0.181 -0.2555 -0.0878 -0.8466
 1781TIP3    H122530   6.555   3.309   0.154  0.9029  0.0466 -1.0852
 1781TIP3    H222531   6.486   3.190   0.217 -0.1914  1.6485  0.8577
 1782TIP3   OH222532   5.722   5.367   7.502  0.0808 -0.3238  0.1285
 1782TIP3    H122533   5.702   5.274   7.512 -1.5880  0.1332  1.5145
 1782TIP3    H222534   5.721   5.383   7.408  0.4251 -1.7075 -0.1232
 1783TIP3   OH222535   2.130   2.371   0.492  0.2103 -0.2501  0.4710
 1783TIP3    H122536   2.176   2.361   0.575  1.4014  1.5066  0.0701
 1783TIP3    H222537   2.135   2.284   0.452  0.7955 -0.7750  1.6330
 1784TIP3   OH222538   0.012   3.732   7.481 -0.6714 -0.4116  0.4368
 1784TIP3    H122539  -0.077   3.754   7.453  0.0098  1.4160 -0.4222
 1784TIP3    H222540   0.049   3.816   7.510  1.4455 -0.7114 -1.1846
 1785TIP3   OH222541   4.445   4.250   5.285  1.2027  0.1301  0.1700
 1785TIP3    H122542   4.375   4.184   5.276  1.9443 -0.4898 -1.4455
 1785TIP3    H222543   4.407   4.317   5.341 -0.1885 -0.8775  0.4933
 1786TIP3   OH222544   1.188   4.264   5.908 -0.5521  0.2253 -0.2444
 1786TIP3    H122545   1.135   4.308   5.975 -2.7188  0.6893 -2.1306
 1786TIP3    H222546   1.275   4.301   5.918 -1.1017  1.1478  1.5371
 1787TIP3   OH222547   5.036   2.826   1.124 -0.0907  0.1965 -0.3699
 1787TIP3    H122548   5.128   2.807   1.106  0.2797  1.1326  0.4481
 1787TIP3    H222549   5.032   2.836   1.219 -1.0087  0.3531 -0.4179
 1788TIP3   OH222550   1.503   4.710   7.296 -0.7327  0.3037  0.3994
 1788TIP3    H122551   1.474   4.668   7.215  0.5915  2.7085 -1.4916
 1788TIP3    H222552   1.579   4.659   7.325  0.4437  0.8875 -1.4652
 1789TIP3   OH222553   1.519   1.830   4.894 -0.2289  0.6732 -0.1965
 1789TIP3    H122554   1.473   1.914   4.897 -0.8306  0.3289  1.3679
 1789TIP3    H222555   1.547   1.815   4.984  1.2074 -0.1031 -0.7371
 1790TIP3   OH222556   0.205   2.900   7.721  0.0742 -0.3602  0.1252
 1790TIP3    H122557   0.240   2.837   7.784 -1.0577  1.5883  2.8843
 1790TIP3    H222558   0.273   2.907   7.654  2.5997 -0.6334  2.4928
 1791TIP3   OH222559   3.591   4.515   7.662  0.3086  0.6383 -0.3424
 1791TIP3    H122560   3.628   4.538   7.577  0.0469 -0.0458 -0.6457
 1791TIP3    H222561   3.500   4.494   7.644 -0.0116  1.4324  0.2650
 1792TIP3   OH222562   2.581   1.722   6.570 -0.0798 -0.2554 -0.1593
 1792TIP3    H122563   2.533   1.683   6.497 -0.4574 -0.3437  0.1301
 1792TIP3    H222564   2.622   1.647   6.614  1.7372 -0.0348 -1.3800
 1793TIP3   OH222565   6.067   4.043   6.532 -0.4865  0.2763 -0.1026
 1793TIP3    H122566   6.024   4.017   6.451  1.2365  0.9579 -1.3075
 1793TIP3    H222567   6.125   3.970   6.553 -0.8679  0.1365  0.4896
 1794TIP3   OH222568   3.173   4.594   2.292 -0.0343  0.3685  0.7702
 1794TIP3    H122569   3.147   4.641   2.213 -0.0392 -1.1483 -0.1728
 1794TIP3    H222570   3.267   4.611   2.300  0.5627 -1.5354 -1.1160
 1795TIP3   OH222571   0.518   0.437   7.357  0.2323 -0.1264 -0.0177
 1795TIP3    H122572   0.527   0.486   7.275  0.4173  1.6644  1.0075
 1795TIP3    H222573   0.593   0.466   7.410  0.1436 -1.2854  0.7652
 1796TIP3   OH222574   4.176   5.816   7.490  0.7983  0.4631  0.2960
 1796TIP3    H122575   4.104   5.876   7.470  1.0432  0.7272  0.1970
 1796TIP3    H222576   4.250   5.848   7.438  0.7586 -0.2967 -0.2545
 1797TIP3   OH222577   1.033   6.551   7.293  0.4508 -0.4349 -0.2810
 1797TIP3    H122578   1.024   6.527   7.201 -0.9079 -2.6541  0.3581
 1797TIP3    H222579   0.974   6.625   7.305  1.0491  0.2257 -1.2812
 1798TIP3   OH222580   2.762   3.384   5.931 -0.4830 -0.2340  0.0628
 1798TIP3    H122581   2.743   3.331   6.008  0.8948  0.2439  0.7785
 1798TIP3    H222582   2.712   3.464   5.944 -0.9308 -0.5060  0.0256
 1799TIP3   OH222583   4.555   1.454   0.301 -0.2051 -0.0233 -0.5503
 1799TIP3    H122584   4.606   1.437   0.222  0.9029 -2.3436  0.5473
 1799TIP3    H222585   4.569   1.546   0.320 -0.5952  0.6384 -3.0703
 1800TIP3   OH222586   4.337   6.175   7.538  0.0455 -0.9857 -0.0150
 1800TIP3    H122587   4.393   6.204   7.466  0.1539  1.0691  0.8071
 1800TIP3    H222588   4.395   6.127   7.597  0.8923  0.6590  0.5597
 1801TIP3   OH222589   3.077   4.199   0.619 -0.1079  0.4653 -0.2274
 1801TIP3    H122590   3.018   4.135   0.658 -0.5124 -0.3118 -1.9903
 1801TIP3    H222591   3.048   4.283   0.652 -0.8787 -0.0873  0.5343
 1802TIP3   OH222592   5.972   5.284   0.064 -0.0934 -0.3355  1.0006
 1802TIP3    H122593   6.019   5.201   0.062  1.1298  0.2951  2.1429
 1802TIP3    H222594   6.029   5.344   0.112 -1.0862  1.0923  0.5051
 1803TIP3   OH222595   2.922   1.907   1.881  0.3887 -0.1861  0.2128
 1803TIP3    H122596   2.869   1.908   1.961 -2.8068  1.6421 -1.6985
 1803TIP3    H222597   2.877   1.846   1.823  0.9315  0.6526 -1.1465
 1804TIP3   OH222598   1.295   3.894   1.144 -0.9426  0.2886 -0.1714
 1804TIP3    H122599   1.387   3.909   1.166 -1.1864  0.6634  0.6364
 1804TIP3    H222600   1.295   3.879   1.050 -0.0963  0.6587 -0.2401
 1805TIP3   OH222601   3.297   5.275   5.733  0.3815  0.5345 -0.5416
 1805TIP3    H122602   3.313   5.326   5.812 -0.2725 -0.8995  0.5680
 1805TIP3    H222603   3.235   5.327   5.683 -0.3743  0.8043  0.6248
 1806TIP3   OH222604   3.597   0.683   7.653  0.0500  0.4822  0.7585
 1806TIP3    H122605   3.687   0.699   7.680  0.1608  1.8379 -0.3505
 1806TIP3    H222606   3.578   0.595   7.686  2.4732 -0.7080 -0.7694
 1807TIP3   OH222607   2.075   4.539   7.111 -0.0774  0.4223 -0.5329
 1807TIP3    H122608   2.157   4.579   7.139 -0.1516  1.6555 -1.9662
 1807TIP3    H222609   2.007   4.591   7.152 -0.1992 -0.8576  1.0021
 1808TIP3   OH222610   5.408   3.583   6.383 -0.1034 -0.1169  0.9039
 1808TIP3    H122611   5.443   3.508   6.431  3.3097 -0.7589 -2.1785
 1808TIP3    H222612   5.460   3.658   6.414 -0.1032  0.0613  0.4712
 1809TIP3   OH222613   4.698   1.357   0.067  0.1574  0.5007  0.2351
 1809TIP3    H122614   4.714   1.264   0.049  1.7991  0.7808  0.0292
 1809TIP3    H222615   4.695   1.398  -0.020 -2.0509  0.4743  0.2453
 1810TIP3   OH222616   6.408   4.555   6.471  0.3264  0.3824  0.0739
 1810TIP3    H122617   6.468   4.490   6.507  1.9912  1.8633  0.1171
 1810TIP3    H222618   6.452   4.588   6.393 -1.2152  0.3499 -0.8476
 1811TIP3   OH222619   2.576   1.759   0.044  0.1526  0.2535  0.0533
 1811TIP3    H122620   2.569   1.739   0.137 -0.1522  0.8839  0.1699
 1811TIP3    H222621   2.664   1.731   0.020  0.2767  0.2000  0.5609
 1812TIP3   OH222622   3.252   2.734   5.842 -0.0449 -0.3284  0.1036
 1812TIP3    H122623   3.344   2.749   5.862 -0.2944 -1.0870  2.1065
 1812TIP3    H222624   3.235   2.784   5.763  1.7672  0.8622  0.4286
 1813TIP3   OH222625   4.559   5.469   1.689  0.4440 -0.0847  0.4398
 1813TIP3    H122626   4.603   5.472   1.604  3.3358 -1.6500  1.7535
 1813TIP3    H222627   4.508   5.389   1.687 -0.9273  0.7720 -0.4011
 1814TIP3   OH222628   0.323   0.017   6.066  0.4319  0.4036  0.5389
 1814TIP3    H122629   0.327  -0.075   6.040 -1.5430  0.1744  0.9189
 1814TIP3    H222630   0.245   0.051   6.022  1.2140  1.9647  0.2772
 1815TIP3   OH222631   5.172   3.682   6.233 -0.2719 -0.5989  0.0832
 1815TIP3    H122632   5.081   3.665   6.258 -0.3454 -0.9665 -0.4197
 1815TIP3    H222633   5.224   3.645   6.304 -0.4736 -1.7738 -0.3594
 1816TIP3   OH222634   1.342   2.572   6.857 -0.7112 -0.1872 -0.1025
 1816TIP3    H122635   1.426   2.541   6.889 -0.2995  1.1167  0.1424
 1816TIP3    H222636   1.277   2.519   6.903 -0.0591 -0.1462  0.8857
 1817TIP3   OH222637   1.723   2.367   0.824 -0.2715 -0.0677 -0.8535
 1817TIP3    H122638   1.792   2.340   0.885  0.9752  1.7279 -1.3886
 1817TIP3    H222639   1.744   2.322   0.742  0.1974  0.3486 -0.9687
 1818TIP3   OH222640   2.724   6.610   0.389  0.2612  0.1846 -0.1817
 1818TIP3    H122641   2.736   6.704   0.402  0.9621  0.1163 -0.2887
 1818TIP3    H222642   2.761   6.593   0.302 -3.4138  0.4605 -2.0054
 1819TIP3   OH222643   1.651   5.937   1.142 -0.2015  0.5237 -0.6030
 1819TIP3    H122644   1.718   5.988   1.187  1.2120 -1.5880 -0.2100
 1819TIP3    H222645   1.576   5.937   1.201  0.0423  1.4955 -0.2857
 1820TIP3   OH222646   3.414   4.083   6.082 -0.1163  0.6365  0.4429
 1820TIP3    H122647   3.466   4.091   6.002  1.4514  3.6829  1.6205
 1820TIP3    H222648   3.340   4.141   6.069 -1.0916 -0.5729  0.3918
 1821TIP3   OH222649   0.794   1.370   6.932  0.1709  0.2806  0.3353
 1821TIP3    H122650   0.710   1.416   6.925  0.7455  1.3325  0.0551
 1821TIP3    H222651   0.775   1.292   6.984 -1.1433  0.0816 -0.3990
 1822TIP3   OH222652   3.429   1.194   1.910  0.3645 -0.2367 -0.6822
 1822TIP3    H122653   3.363   1.256   1.879  0.7029 -0.4794 -1.9633
 1822TIP3    H222654   3.384   1.144   1.978  0.1678  1.5504  0.5708
 1823TIP3   OH222655   6.348   1.880   1.185 -0.1734  0.7124 -0.3208
 1823TIP3    H122656   6.368   1.865   1.093  2.0089  0.1987  0.1768
 1823TIP3    H222657   6.370   1.971   1.200  2.3573  0.0675  0.3004
 1824TIP3   OH222658   5.337   0.027   6.546 -0.0259 -0.3803 -0.4367
 1824TIP3    H122659   5.293  -0.044   6.499  1.5943 -1.0978 -0.9551
 1824TIP3    H222660   5.366   0.087   6.477  1.3351 -0.8361 -0.2978
 1825TIP3   OH222661   6.131   4.811   2.122 -0.2128  0.2162  0.0346
 1825TIP3    H122662   6.100   4.721   2.122 -1.9588  0.7767 -0.0884
 1825TIP3    H222663   6.206   4.811   2.182 -0.2852 -1.2727  0.1444
 1826TIP3   OH222664   1.154   6.619   6.406 -0.1991 -0.0580  0.1699
 1826TIP3    H122665   1.245   6.591   6.393 -0.9631 -2.1583 -1.1557
 1826TIP3    H222666   1.119   6.556   6.469 -0.6547  1.0091  1.0180
 1827TIP3   OH222667   0.465   6.405   6.920  0.4869  0.1656  0.5402
 1827TIP3    H122668   0.530   6.476   6.918 -0.4957  1.0773 -0.1988
 1827TIP3    H222669   0.391   6.442   6.968 -0.2891 -0.1339 -0.4010
 1828TIP3   OH222670   5.406   3.484   7.543 -0.4836 -0.2345  0.3235
 1828TIP3    H122671   5.371   3.475   7.454 -0.8933 -0.9429  0.5491
 1828TIP3    H222672   5.444   3.572   7.545  1.4810 -0.9642 -1.2223
 1829TIP3   OH222673   0.576   1.775   2.247 -0.4449 -0.2911 -0.2446
 1829TIP3    H122674   0.588   1.687   2.283 -1.1358 -0.8978 -1.4334
 1829TIP3    H222675   0.647   1.826   2.287 -0.5009 -1.1786  1.0675
 1830TIP3   OH222676   5.696   5.803   2.016  0.0574  0.0583  0.0930
 1830TIP3    H122677   5.616   5.809   1.964  0.3572 -0.4674 -0.4344
 1830TIP3    H222678   5.690   5.720   2.062  0.7728 -0.4724 -0.7519
 1831TIP3   OH222679   3.206   1.602   0.039  0.4851 -0.4356  0.5010
 1831TIP3    H122680   3.152   1.603  -0.040  2.9501  1.2088 -1.3016
 1831TIP3    H222681   3.159   1.656   0.102 -0.8893 -0.6857 -0.2837
 1832TIP3   OH222682   4.321   0.554   2.302 -0.1252 -0.2945 -0.1090
 1832TIP3    H122683   4.239   0.538   2.255  1.0591 -2.8785 -1.4848
 1832TIP3    H222684   4.333   0.649   2.298 -2.5930  0.0658 -0.5843
 1833TIP3   OH222685   1.286   0.900   7.560  0.2802 -0.1757  0.1803
 1833TIP3    H122686   1.360   0.852   7.522  1.1957  1.0627  0.3553
 1833TIP3    H222687   1.318   0.930   7.645 -1.3370 -1.8782  1.4748
 1834TIP3   OH222688   5.799   1.402   0.102  0.0058 -0.0003 -0.1109
 1834TIP3    H122689   5.860   1.345   0.056  2.8728  2.4272  0.3826
 1834TIP3    H222690   5.813   1.382   0.195  2.6293  2.6598  0.2374
 1835TIP3   OH222691   2.267   3.441   2.187  0.0106 -0.9497 -0.5060
 1835TIP3    H122692   2.228   3.376   2.246  1.4329 -1.7884 -0.4436
 1835TIP3    H222693   2.262   3.524   2.235 -0.5137 -1.2823  0.0275
 1836TIP3   OH222694   3.404   0.208   1.864 -0.8804  0.1761 -0.0483
 1836TIP3    H122695   3.423   0.285   1.918 -1.4373  2.1450 -2.4868
 1836TIP3    H222696   3.488   0.184   1.826 -0.6305 -0.7333  1.0270
 1837TIP3   OH222697   4.659   4.281   0.060 -0.3334 -0.1133  0.2546
 1837TIP3    H122698   4.653   4.262   0.153 -2.5204  1.2122  0.4365
 1837TIP3    H222699   4.622   4.203   0.017  0.2869 -0.5456  0.4893
 1838TIP3   OH222700   2.162   2.006   5.926  0.0470  0.1909 -0.5674
 1838TIP3    H122701   2.099   2.077   5.915  0.4435  0.5896 -0.2961
 1838TIP3    H222702   2.244   2.050   5.949  0.8901 -0.1925 -2.6822
 1839TIP3   OH222703   0.155   2.131   7.276  0.7885 -0.1619 -0.4567
 1839TIP3    H122704   0.107   2.194   7.222 -1.5968  0.3531  2.0255
 1839TIP3    H222705   0.137   2.046   7.236  0.8492  0.3821 -1.6624
 1840TIP3   OH222706   1.038   4.596   1.911  0.0406  0.6475  0.1091
 1840TIP3    H122707   0.994   4.637   1.986 -0.0004  3.5248 -1.3780
 1840TIP3    H222708   1.132   4.607   1.929  0.1974 -1.9268  1.3624
 1841TIP3   OH222709   5.543   5.476   5.973 -0.2502  0.1690  0.2439
 1841TIP3    H122710   5.495   5.501   6.051  1.4129 -0.6189  1.6019
 1841TIP3    H222711   5.531   5.381   5.967  0.3816  0.0892  0.1094
 1842TIP3   OH222712   0.500   6.564   0.634 -0.1279  0.4835 -0.6577
 1842TIP3    H122713   0.405   6.572   0.623  0.0471  1.2867 -1.7537
 1842TIP3    H222714   0.523   6.632   0.697 -0.3168  0.0625 -0.1273
 1843TIP3   OH222715   3.760   1.763   7.430  0.3099  0.0798 -0.4309
 1843TIP3    H122716   3.748   1.689   7.370  1.3252 -0.2329 -0.2709
 1843TIP3    H222717   3.848   1.795   7.411 -0.4312  1.8259 -1.1058
 1844TIP3   OH222718   0.537   4.261   6.404 -0.1309  1.1197 -0.3034
 1844TIP3    H122719   0.581   4.182   6.374 -1.0536  1.2789 -2.1815
 1844TIP3    H222720   0.604   4.329   6.403  0.0468  0.9322 -1.2157
 1845TIP3   OH222721   0.082   1.840   0.761 -0.0185  0.1502 -0.0258
 1845TIP3    H122722   0.026   1.909   0.797 -1.7264 -1.7642  1.1737
 1845TIP3    H222723   0.108   1.874   0.675 -1.3481  1.9871  0.2153
 1846TIP3   OH222724   0.528   0.408   6.707 -0.5110 -0.3637  0.2055
 1846TIP3    H122725   0.506   0.440   6.620  1.4999 -0.6132 -0.4580
 1846TIP3    H222726   0.613   0.447   6.726 -0.7932 -0.5263  1.9610
 1847TIP3   OH222727   6.250   1.449   7.356  0.4864  0.3898  0.2471
 1847TIP3    H122728   6.340   1.473   7.380  0.8704 -1.3762  0.7503
 1847TIP3    H222729   6.201   1.455   7.438  0.0567  1.6293 -0.0837
 1848TIP3   OH222730   3.002   2.222   7.187  0.4853  0.4187 -0.4428
 1848TIP3    H122731   2.964   2.310   7.182 -0.2462  0.1335  0.0291
 1848TIP3    H222732   3.055   2.215   7.107  0.7324  1.3681 -0.3784
 1849TIP3   OH222733   5.211   6.481   6.405 -0.5321  0.4025  0.0374
 1849TIP3    H122734   5.234   6.457   6.315 -0.0819  2.3943 -0.4288
 1849TIP3    H222735   5.117   6.494   6.403 -0.8094 -1.3259  0.3339
 1850TIP3   OH222736   5.838   2.940   7.103 -0.1071  0.2120  0.5906
 1850TIP3    H122737   5.819   2.976   7.189 -0.1381  1.5809  0.0356
 1850TIP3    H222738   5.813   2.848   7.109 -2.4360  0.8394  1.3077
 1851TIP3   OH222739   4.261   6.431   0.654 -0.1027 -0.5144  0.0672
 1851TIP3    H122740   4.291   6.506   0.706  0.5236 -1.5370  1.2348
 1851TIP3    H222741   4.328   6.420   0.587 -1.0019  0.9201 -1.1438
 1852TIP3   OH222742   5.103   2.908   1.881 -0.7693  0.2965  0.0788
 1852TIP3    H122743   5.043   2.880   1.951 -0.3785  2.2513  1.2799
 1852TIP3    H222744   5.189   2.878   1.910 -0.5166  1.6306  0.8015
 1853TIP3   OH222745   3.339   0.337   7.093 -0.1443  0.3739  0.0725
 1853TIP3    H122746   3.396   0.382   7.155 -0.2893 -0.9926  1.2552
 1853TIP3    H222747   3.256   0.327   7.140 -0.6824  0.4406 -0.8373
 1854TIP3   OH222748   1.533   1.935   2.509  0.0486 -0.1642 -0.5437
 1854TIP3    H122749   1.505   1.854   2.551 -1.5851  0.8340  0.3815
 1854TIP3    H222750   1.540   1.999   2.580 -0.5291  0.9721 -1.4534
 1855TIP3   OH222751   6.378   5.627   0.034  0.1340  0.5927  0.2051
 1855TIP3    H122752   6.472   5.631   0.050  0.2094 -0.6982  0.2479
 1855TIP3    H222753   6.368   5.644  -0.059  0.6900 -1.6491 -0.3390
 1856TIP3   OH222754   6.042   5.582   0.623  0.1297  0.0763  0.2429
 1856TIP3    H122755   6.025   5.488   0.630  2.1937 -0.5501 -1.8121
 1856TIP3    H222756   5.993   5.620   0.696 -4.7270 -1.9663 -1.5209
 1857TIP3   OH222757   5.193   6.395   7.098  0.7306 -0.0723 -0.6226
 1857TIP3    H122758   5.173   6.304   7.079 -0.6434  0.0579  0.0973
 1857TIP3    H222759   5.275   6.412   7.052  0.9057 -1.6106 -0.9139
 1858TIP3   OH222760   1.071   0.508   7.343 -0.0272  0.6778  0.6648
 1858TIP3    H122761   1.099   0.450   7.415  0.8374 -2.0131 -1.6489
 1858TIP3    H222762   0.976   0.514   7.353 -0.0618 -0.6522  1.3540
 1859TIP3   OH222763   3.830   4.886   5.571  0.2538  0.0860 -0.6580
 1859TIP3    H122764   3.877   4.920   5.647 -0.9241  1.0285 -0.3253
 1859TIP3    H222765   3.871   4.802   5.553  2.2859  0.9940 -0.5852
 1860TIP3   OH222766   5.934   0.813   7.472 -0.2005  0.0301  0.3020
 1860TIP3    H122767   5.839   0.814   7.475 -0.2010  0.3267  0.2172
 1860TIP3    H222768   5.961   0.801   7.563 -0.3324 -1.6739  0.1335
 1861TIP3   OH222769   6.240   6.087   0.229  0.3066  0.2437  0.5329
 1861TIP3    H122770   6.176   6.046   0.170 -1.4128  2.0239  1.0549
 1861TIP3    H222771   6.318   6.097   0.175 -0.7963  0.6467 -1.0636
 1862TIP3   OH222772   4.905   4.428   0.887  0.1012  0.0456 -0.5639
 1862TIP3    H122773   4.880   4.359   0.825  1.4673  1.4060 -2.7820
 1862TIP3    H222774   4.991   4.401   0.919  1.0447  1.0008 -2.1000
 1863TIP3   OH222775   1.169   2.083   6.582 -0.2415  0.1676 -0.1545
 1863TIP3    H122776   1.237   2.150   6.572  0.4978 -0.2943  1.4481
 1863TIP3    H222777   1.147   2.058   6.492  2.9502 -0.8375 -0.7931
 1864TIP3   OH222778   6.470   6.281   7.105 -0.3998  0.3288  0.1956
 1864TIP3    H122779   6.447   6.188   7.098  2.3406 -0.4690  0.7746
 1864TIP3    H222780   6.465   6.313   7.015  2.7614 -1.5550 -0.8268
 1865TIP3   OH222781   4.785   5.361   0.308 -0.3541  0.5178 -0.2851
 1865TIP3    H122782   4.735   5.332   0.231 -0.4382  0.5990 -0.2613
 1865TIP3    H222783   4.871   5.321   0.297 -1.0644 -1.4327  0.7747
 1866TIP3   OH222784   1.899   3.023   1.081 -0.3329  0.1922  0.5887
 1866TIP3    H122785   1.945   3.089   1.028  0.3532  0.4807  1.5093
 1866TIP3    H222786   1.812   3.060   1.096  0.5532  1.7361  2.4904
 1867TIP3   OH222787   1.840   2.327   2.545  0.2771  0.3999 -0.0543
 1867TIP3    H122788   1.874   2.290   2.626  0.3769  2.7218  1.0494
 1867TIP3    H222789   1.886   2.411   2.536 -0.3196  0.5760 -2.1051
 1868TIP3   OH222790   0.733   3.847   1.045 -0.0906 -0.1481  0.7898
 1868TIP3    H122791   0.804   3.848   0.980 -1.2661  1.0686 -0.5746
 1868TIP3    H222792   0.659   3.809   0.998 -0.8927  0.4811  1.5093
 1869TIP3   OH222793   0.287   4.589   0.146 -0.7684 -0.8001 -0.3785
 1869TIP3    H122794   0.262   4.615   0.234 -1.4558 -1.2779 -0.4248
 1869TIP3    H222795   0.223   4.632   0.089  0.7844  1.0548 -0.8177
 1870TIP3   OH222796   3.404   1.959   1.625 -0.7645 -0.3224 -0.4087
 1870TIP3    H122797   3.437   2.048   1.610  0.4549 -0.5663  0.6520
 1870TIP3    H222798   3.311   1.970   1.645 -1.0974  0.5150 -2.2356
 1871TIP3   OH222799   1.024   6.005   7.689 -0.1842 -0.3601 -0.0595
 1871TIP3    H122800   0.943   6.054   7.673 -0.9299 -1.8305 -1.1271
 1871TIP3    H222801   1.058   5.986   7.602  0.3160 -1.3278  0.3264
 1872TIP3   OH222802   0.338   4.144   2.555  0.0474  0.2977 -0.1697
 1872TIP3    H122803   0.352   4.206   2.626  0.3221  1.3893 -1.1409
 1872TIP3    H222804   0.409   4.080   2.564  1.8635  2.0618 -1.1456
 1873TIP3   OH222805   0.434   5.649   7.395  0.1508 -0.2356  0.2515
 1873TIP3    H122806   0.366   5.674   7.333  0.0582 -1.8523 -0.3552
 1873TIP3    H222807   0.496   5.597   7.343  1.0372 -0.0742  1.1208
 1874TIP3   OH222808   2.033   6.480   6.453  0.3154 -0.8328 -0.5912
 1874TIP3    H122809   2.040   6.386   6.438  0.2679 -1.0010  0.4034
 1874TIP3    H222810   2.051   6.491   6.546  1.0565  0.2235 -0.8469
 1875TIP3   OH222811   1.944   2.449   6.343 -0.1323  0.1983 -0.3544
 1875TIP3    H122812   1.928   2.452   6.249 -0.4567  1.9654 -0.2786
 1875TIP3    H222813   2.016   2.511   6.357  0.6061 -0.7961  0.4604
 1876TIP3   OH222814   6.532   3.569   2.176 -0.2469 -0.3286  0.2596
 1876TIP3    H122815   6.504   3.610   2.094 -1.2767 -1.7678 -0.1424
 1876TIP3    H222816   6.583   3.493   2.149  0.8458  0.1199  0.9842
 1877TIP3   OH222817   5.862   1.844   0.307 -0.2597  0.1628  1.0795
 1877TIP3    H122818   5.901   1.757   0.304 -2.5648 -0.9188 -0.1858
 1877TIP3    H222819   5.890   1.880   0.391  1.3951 -1.4664  1.2866
 1878TIP3   OH222820   5.767   4.900   7.717  0.2403  0.4248  0.9377
 1878TIP3    H122821   5.703   4.906   7.788 -1.8681 -1.8897 -0.5944
 1878TIP3    H222822   5.716   4.914   7.638  1.6468 -1.2738 -0.3575
 1879TIP3   OH222823   1.985   4.524   1.172  0.4254 -0.4750 -0.2500
 1879TIP3    H122824   1.922   4.595   1.160  2.0820  0.9886 -0.7385
 1879TIP3    H222825   2.012   4.500   1.084  1.4459 -0.2394 -0.0110
 1880TIP3   OH222826   4.964   5.759   7.405  0.0917 -0.9714 -0.3908
 1880TIP3    H122827   4.897   5.696   7.377 -0.6846 -0.3531  0.0741
 1880TIP3    H222828   4.960   5.829   7.340  0.7812 -1.2622 -0.7617
 1881TIP3   OH222829   4.028   0.994   1.103  0.8119 -0.0841 -0.1955
 1881TIP3    H122830   4.019   1.048   1.182  1.3580 -1.4457  0.8349
 1881TIP3    H222831   3.985   0.911   1.126  1.0808 -0.5409 -1.2977
 1882TIP3   OH222832   1.524   5.802   1.520 -0.2642 -0.1996  0.3237
 1882TIP3    H122833   1.561   5.726   1.565  0.7410  0.3172  0.4103
 1882TIP3    H222834   1.431   5.780   1.508 -0.2230 -0.9937  1.2776
 1883TIP3   OH222835   0.772   1.023   0.593 -0.5525 -0.2831  0.0973
 1883TIP3    H122836   0.865   1.021   0.569 -0.5635 -1.7928  0.0973
 1883TIP3    H222837   0.767   1.091   0.661  0.3372  0.5862 -0.6779
 1884TIP3   OH222838   1.617   6.574   7.434 -0.0710  0.5811 -0.5463
 1884TIP3    H122839   1.528   6.608   7.434 -0.3919 -0.1217  1.5493
 1884TIP3    H222840   1.617   6.505   7.367 -1.3130  0.0752 -0.0457
 1885TIP3   OH222841   3.917   6.061   0.615 -0.2650 -0.1702 -0.2287
 1885TIP3    H122842   3.855   5.988   0.617 -1.1145  0.5089 -0.7501
 1885TIP3    H222843   3.954   6.058   0.527  0.1021 -0.3001 -0.0695
 1886TIP3   OH222844   0.932   1.655   6.391  0.4049  0.6809 -0.2273
 1886TIP3    H122845   0.964   1.579   6.439  0.8593  1.0731  0.1024
 1886TIP3    H222846   0.984   1.656   6.310 -1.2951 -0.7701 -1.4167
 1887TIP3   OH222847   6.148   0.851   0.865 -0.3092 -0.1680 -0.0658
 1887TIP3    H122848   6.091   0.791   0.913  1.9542 -1.6396  0.9934
 1887TIP3    H222849   6.172   0.918   0.930  0.8419 -0.7970  0.1870
 1888TIP3   OH222850   1.180   5.322   0.151 -0.1458 -0.0149 -0.1516
 1888TIP3    H122851   1.241   5.362   0.213 -0.8717  0.0705  0.5330
 1888TIP3    H222852   1.166   5.388   0.084 -1.4061  0.9752  1.0168
 1889TIP3   OH222853   6.528   4.050   5.823 -0.9616 -0.0478  0.6959
 1889TIP3    H122854   6.616   4.051   5.786 -1.0042  0.0373  0.5985
 1889TIP3    H222855   6.523   4.128   5.877 -1.1346  0.1909  0.3372
 1890TIP3   OH222856   4.869   0.665   1.463 -0.4777  0.1122 -0.0072
 1890TIP3    H122857   4.845   0.574   1.476  0.0269 -0.0106  0.0840
 1890TIP3    H222858   4.836   0.710   1.541 -0.6692  0.0025 -0.0232
 1891TIP3   OH222859   3.457   3.914   6.583  0.3023  0.8972  0.3495
 1891TIP3    H122860   3.458   3.939   6.490 -0.8247  0.8548  0.3124
 1891TIP3    H222861   3.484   3.822   6.583  0.2129  0.8682  0.0448
 1892TIP3   OH222862   2.035   0.504   6.308 -0.8078 -0.1911  0.0864
 1892TIP3    H122863   2.083   0.424   6.327 -1.2035 -1.0804 -2.3464
 1892TIP3    H222864   2.093   0.554   6.249 -1.3016  0.4949  0.1647
 1893TIP3   OH222865   1.817   1.566   5.372 -0.2629  0.1865 -0.1319
 1893TIP3    H122866   1.766   1.646   5.390  0.6021  0.9147 -0.8000
 1893TIP3    H222867   1.903   1.599   5.345  0.2076 -0.9938 -0.1067
 1894TIP3   OH222868   5.714   5.532   2.065  0.2287 -0.0494  0.1783
 1894TIP3    H122869   5.712   5.476   2.142 -0.2114 -0.7277 -0.3117
 1894TIP3    H222870   5.684   5.475   1.993  2.0050  0.1507 -0.7627
 1895TIP3   OH222871   3.695   3.545   0.074  0.5926  0.2665 -0.5268
 1895TIP3    H122872   3.769   3.604   0.063  0.6404  0.0869 -1.2043
 1895TIP3    H222873   3.619   3.597   0.048  0.4755  0.4391  0.1325
 1896TIP3   OH222874   4.495   3.736   6.698 -1.0775 -0.7091  0.6267
 1896TIP3    H122875   4.417   3.683   6.711 -0.6463 -1.3557  0.6139
 1896TIP3    H222876   4.489   3.804   6.766 -1.6727 -0.7170  0.5880
 1897TIP3   OH222877   5.572   3.682   1.447  0.2276 -0.2319  0.6914
 1897TIP3    H122878   5.485   3.643   1.458  0.3689 -0.6916  0.2146
 1897TIP3    H222879   5.633   3.612   1.471  0.5171 -0.8046 -1.4890
 1898TIP3   OH222880   3.913   5.602   6.399 -0.2178  0.2398  0.1776
 1898TIP3    H122881   3.918   5.511   6.428  1.2954 -0.6967 -2.5987
 1898TIP3    H222882   4.000   5.620   6.363 -0.2241  3.1078  1.3562
 1899TIP3   OH222883   1.498   1.906   7.552  0.0220 -0.3002 -0.0827
 1899TIP3    H122884   1.451   1.866   7.626 -0.1925  0.3398  0.1290
 1899TIP3    H222885   1.528   1.991   7.585 -0.2761  0.0936 -0.8034
 1900TIP3   OH222886   0.986   3.497   7.317  0.5993 -0.4622  0.0540
 1900TIP3    H122887   0.924   3.569   7.307  1.7066  0.2870 -1.8058
 1900TIP3    H222888   0.994   3.460   7.229  1.5000 -1.6543  0.6061
 1901TIP3   OH222889   0.218   6.028   1.679  0.1099 -0.1535 -0.3617
 1901TIP3    H122890   0.310   6.022   1.655 -0.1251 -1.0666 -1.0650
 1901TIP3    H222891   0.218   6.027   1.775  0.8808  0.7887 -0.3433
 1902TIP3   OH222892   6.042   1.592   0.259 -0.3815  0.6592  0.3167
 1902TIP3    H122893   6.004   1.506   0.277  0.2793  0.0859 -0.9051
 1902TIP3    H222894   6.133   1.585   0.288 -0.3535  0.9824  0.3124
 1903TIP3   OH222895   6.183   6.336   7.314 -0.5325 -0.4216  0.6200
 1903TIP3    H122896   6.142   6.385   7.242  0.6710  1.1187  0.9379
 1903TIP3    H222897   6.230   6.265   7.271  0.5926  0.7773 -0.2135
 1904TIP3   OH222898   6.186   3.287   7.146 -0.6792  0.3051 -0.0664
 1904TIP3    H122899   6.195   3.194   7.125  0.4352  0.5151 -0.6308
 1904TIP3    H222900   6.092   3.303   7.147 -0.8999 -0.9493  0.6100
 1905TIP3   OH222901   5.782   1.972   0.058  0.0245  0.7805 -0.3403
 1905TIP3    H122902   5.799   1.968   0.152  0.7379 -0.9700 -0.5124
 1905TIP3    H222903   5.865   1.949   0.017 -0.5940  0.3123 -1.3819
 1906TIP3   OH222904   3.406   1.885   7.147 -0.1199 -0.6227  0.4405
 1906TIP3    H122905   3.489   1.838   7.145 -0.2356 -0.8610  1.0239
 1906TIP3    H222906   3.360   1.856   7.069  0.3160 -0.5449  0.1508
 1907TIP3   OH222907   4.401   0.586   1.912  0.1612  0.1199 -0.4202
 1907TIP3    H122908   4.313   0.547   1.906  0.6902 -0.9642 -1.7643
 1907TIP3    H222909   4.443   0.563   1.829  1.3401  1.5964 -0.2769
 1908TIP3   OH222910   3.658   2.625   0.566  0.3299  0.1538 -0.3411
 1908TIP3    H122911   3.731   2.572   0.600 -1.0499 -0.2585  2.2257
 1908TIP3    H222912   3.646   2.594   0.477  0.4421 -3.0421  0.6207
 1909TIP3   OH222913   3.815   0.046   6.692  0.1936 -0.3256 -0.4724
 1909TIP3    H122914   3.727   0.010   6.680  0.4983 -1.2766  0.0866
 1909TIP3    H222915   3.801   0.139   6.706 -0.7441 -0.5043 -0.1780
 1910TIP3   OH222916   5.268   3.890   6.473  0.6858  0.1524  0.1528
 1910TIP3    H122917   5.226   3.955   6.531  0.1811  0.4390 -0.5253
 1910TIP3    H222918   5.304   3.942   6.401 -0.9232 -0.4242 -1.1239
 1911TIP3   OH222919   0.676   4.213   1.192 -0.4303  0.7414 -0.0344
 1911TIP3    H122920   0.659   4.125   1.227 -0.6642  1.0494  0.6407
 1911TIP3    H222921   0.765   4.234   1.222  0.8436 -0.4339 -2.6628
 1912TIP3   OH222922   2.186   3.385   5.452  0.7092 -0.5508  0.2615
 1912TIP3    H122923   2.276   3.419   5.450  0.8554 -0.9400  0.0802
 1912TIP3    H222924   2.155   3.395   5.362  0.3692  0.0911  0.4364
 1913TIP3   OH222925   5.250   4.852   1.071 -0.4456  0.4790 -0.0529
 1913TIP3    H122926   5.224   4.861   1.163  0.8932 -0.8532  0.5105
 1913TIP3    H222927   5.211   4.769   1.043  0.3637  0.1479 -0.2220
 1914TIP3   OH222928   5.681   2.212   1.938 -0.9541 -0.3884  0.2615
 1914TIP3    H122929   5.708   2.130   1.978 -1.3646  0.4224  2.3202
 1914TIP3    H222930   5.733   2.279   1.981 -2.2881  0.6447  0.3545
 1915TIP3   OH222931   0.250   1.917   2.233 -0.0101  0.0287 -0.0852
 1915TIP3    H122932   0.305   1.944   2.306  1.6448 -1.0802 -0.8821
 1915TIP3    H222933   0.308   1.916   2.157 -0.5377 -3.1748 -0.6028
 1916TIP3   OH222934   1.481   3.609   1.583  0.6795  0.7471 -0.4755
 1916TIP3    H122935   1.442   3.557   1.512  0.8623  0.2290 -0.2006
 1916TIP3    H222936   1.406   3.647   1.628  0.5547  0.9591 -0.8571
 1917TIP3   OH222937   3.877   2.981   5.161 -0.2068  0.4279 -0.2046
 1917TIP3    H122938   3.932   3.059   5.160  1.3567 -0.5817 -2.2547
 1917TIP3    H222939   3.911   2.928   5.233  0.7692  0.3338 -0.7211
 1918TIP3   OH222940   4.604   2.932   5.357 -0.3691 -0.3296 -0.0538
 1918TIP3    H122941   4.692   2.969   5.351 -2.0751  4.3514 -0.4160
 1918TIP3    H222942   4.589   2.890   5.273  1.5581 -1.5491  0.1535
 1919TIP3   OH222943   4.817   0.298   0.096 -0.5800 -0.4416 -0.1434
 1919TIP3    H122944   4.808   0.388   0.129  3.0480 -0.1271  0.3903
 1919TIP3    H222945   4.837   0.247   0.174  1.7475 -0.8629 -0.9671
 1920TIP3   OH222946   2.411   0.314   1.574  0.0803 -0.5338  0.1766
 1920TIP3    H122947   2.334   0.352   1.531  0.9544 -1.6646 -2.5853
 1920TIP3    H222948   2.382   0.227   1.602 -0.0833 -0.3319  0.6543
 1921TIP3   OH222949   1.398   2.797   1.447  0.0594 -0.1215  0.4221
 1921TIP3    H122950   1.374   2.831   1.361 -0.0057 -0.1867  0.4143
 1921TIP3    H222951   1.472   2.851   1.475  0.3629 -0.3773  0.1334
 1922TIP3   OH222952   6.319   5.394   1.132 -0.0798 -0.4166 -0.4677
 1922TIP3    H122953   6.369   5.468   1.166 -0.1545  0.0030 -1.2688
 1922TIP3    H222954   6.276   5.357   1.210  1.2650 -0.6378  0.1949
 1923TIP3   OH222955   2.477   4.933   6.524  0.0159 -0.2987  0.2399
 1923TIP3    H122956   2.545   4.866   6.525  0.4718  0.0180 -2.5174
 1923TIP3    H222957   2.420   4.908   6.451 -0.9898  1.1971  0.4753
 1924TIP3   OH222958   2.406   2.782   0.752 -0.3789 -0.4874 -0.2591
 1924TIP3    H122959   2.497   2.754   0.753 -0.5247 -0.9603 -0.0422
 1924TIP3    H222960   2.388   2.803   0.660  0.7589  2.3178  0.0583
 1925TIP3   OH222961   1.751   2.348   3.170  0.0003  0.2466  0.0594
 1925TIP3    H122962   1.707   2.282   3.224 -0.3816  0.7110  0.3264
 1925TIP3    H222963   1.829   2.304   3.137 -1.3125 -1.0553 -1.5098
 1926TIP3   OH222964   2.995   4.446   5.861  0.1392  0.0331  0.2301
 1926TIP3    H122965   2.942   4.525   5.848 -1.7639 -0.7612  2.3564
 1926TIP3    H222966   2.943   4.376   5.822  0.5066 -0.5171  0.7027
 1927TIP3   OH222967   3.168   3.639   6.222 -0.1479 -0.1880  0.5717
 1927TIP3    H122968   3.173   3.639   6.126 -1.5367 -1.3193  0.4578
 1927TIP3    H222969   3.100   3.704   6.242  2.5327  2.7237  1.0706
 1928TIP3   OH222970   4.131   1.433   6.913  0.0287  0.3511  0.3433
 1928TIP3    H122971   4.120   1.429   7.008 -0.8026 -0.1013  0.2403
 1928TIP3    H222972   4.094   1.350   6.882 -1.5374  1.3197 -0.5219
 1929TIP3   OH222973   5.570   6.296   6.513 -0.0079 -0.2967  0.3425
 1929TIP3    H122974   5.478   6.273   6.521 -0.1794 -1.0037 -2.5260
 1929TIP3    H222975   5.590   6.282   6.420  2.5356  1.5404  0.5195
 1930TIP3   OH222976   2.378   2.944   6.496 -0.6831 -0.9680 -0.3817
 1930TIP3    H122977   2.316   3.017   6.497  0.1786 -0.2228  0.2048
 1930TIP3    H222978   2.324   2.866   6.509 -1.4749 -0.3196  0.3191
 1931TIP3   OH222979   1.089   3.797   2.149  0.0437 -0.4932 -0.1828
 1931TIP3    H122980   1.021   3.746   2.194  0.0486  0.0095  0.4171
 1931TIP3    H222981   1.168   3.743   2.158 -0.0992 -0.7050 -0.1677
 1932TIP3   OH222982   0.139   2.565   6.489 -0.2417  0.2789 -0.3628
 1932TIP3    H122983   0.228   2.585   6.458 -0.4964  1.5653 -0.3231
 1932TIP3    H222984   0.144   2.475   6.520  0.9297  0.1711 -0.8163
 1933TIP3   OH222985   0.237   6.465   7.074  0.2241  0.5881  0.4684
 1933TIP3    H122986   0.200   6.436   7.158 -0.4203 -0.0523 -0.0316
 1933TIP3    H222987   0.258   6.558   7.089 -1.5825  0.9850  0.7891
 1934TIP3   OH222988   1.129   5.596   7.091  0.2376  0.3387 -0.4265
 1934TIP3    H122989   1.102   5.657   7.022  0.8078  0.7171 -0.3273
 1934TIP3    H222990   1.221   5.577   7.072 -0.2603 -1.5091 -1.1889
 1935TIP3   OH222991   0.885   2.002   2.642  0.7011  0.3899  0.0837
 1935TIP3    H122992   0.869   2.093   2.670  2.9629  1.0281 -0.5324
 1935TIP3    H222993   0.951   1.970   2.704  0.1750 -0.7464  0.0746
 1936TIP3   OH222994   0.769   6.455   1.724 -0.4649  0.6539  0.5086
 1936TIP3    H122995   0.708   6.381   1.727 -0.1637  0.4375  1.6706
 1936TIP3    H222996   0.732   6.513   1.657  0.1087 -1.2225 -1.5698
 1937TIP3   OH222997   4.572   6.307   1.849 -0.0034 -0.3984  0.3875
 1937TIP3    H122998   4.639   6.372   1.870  0.4790  0.0036 -2.1369
 1937TIP3    H222999   4.499   6.328   1.908  1.5762 -0.0692  2.3261
 1938TIP3   OH223000   3.623   3.165   5.207 -0.5238  0.3791  0.3910
 1938TIP3    H123001   3.672   3.087   5.180 -0.8736  0.4212 -0.4047
 1938TIP3    H223002   3.668   3.196   5.286  1.2843  0.9151 -0.7883
 1939TIP3   OH223003   2.883   2.373   1.879  0.2322 -0.0616 -0.4898
 1939TIP3    H123004   2.885   2.448   1.938 -0.3982 -0.6143  0.2551
 1939TIP3    H223005   2.953   2.316   1.910  2.2573  1.1899 -2.4437
 1940TIP3   OH223006   3.852   0.111   1.268 -0.8800 -0.1371  0.1391
 1940TIP3    H123007   3.805   0.035   1.302  0.6784 -0.7331  1.0257
 1940TIP3    H223008   3.883   0.157   1.345 -1.2681  1.0860 -0.4047
 1941TIP3   OH223009   1.964   0.921   1.641 -0.8284 -0.2129 -0.0359
 1941TIP3    H123010   1.965   0.982   1.715  1.2433  2.1299 -1.8159
 1941TIP3    H223011   2.056   0.897   1.628 -1.2313 -1.1241 -1.4185
 1942TIP3   OH223012   0.144   4.201   2.292 -0.2356 -0.4038  0.8225
 1942TIP3    H123013   0.235   4.224   2.272 -0.0632 -0.6258  1.3244
 1942TIP3    H223014   0.107   4.170   2.210 -0.1141  0.5153  0.4066
 1943TIP3   OH223015   6.582   6.546   0.746 -0.2595 -0.6101  0.4226
 1943TIP3    H123016   6.525   6.553   0.670  1.3423  0.0216 -0.7696
 1943TIP3    H223017   6.670   6.558   0.712  0.5760 -0.9986  2.2839
 1944TIP3   OH223018   5.455   4.814   1.539 -0.3411 -0.5100 -0.1341
 1944TIP3    H123019   5.461   4.721   1.517  1.1103 -0.8463  1.4439
 1944TIP3    H223020   5.429   4.816   1.632  1.4923  0.5550  0.4193
 1945TIP3   OH223021   4.309   1.469   7.232 -0.4242 -0.1619 -0.4304
 1945TIP3    H123022   4.324   1.493   7.323 -1.9565  0.5750 -0.3400
 1945TIP3    H223023   4.396   1.451   7.197  0.2529  0.2474  0.9765
 1946TIP3   OH223024   3.059   3.287   0.980  0.3531 -0.0988  0.0577
 1946TIP3    H123025   3.056   3.212   1.040 -0.2123  1.3976  1.9799
 1946TIP3    H223026   3.088   3.360   1.034 -0.0402  1.3014 -1.5471
 1947TIP3   OH223027   2.719   3.924   6.887 -0.3861 -0.1848 -0.6539
 1947TIP3    H123028   2.800   3.901   6.842 -0.7962 -0.9301 -1.0425
 1947TIP3    H223029   2.712   3.859   6.957  0.1657  0.8713  0.4029
 1948TIP3   OH223030   5.217   2.005   0.691  0.4542  0.3889  0.5559
 1948TIP3    H123031   5.239   1.934   0.751 -0.2226  1.3692  2.0454
 1948TIP3    H223032   5.188   1.961   0.611  1.6741 -0.9632  0.8081
 1949TIP3   OH223033   1.960   2.875   7.384  0.0753 -0.0406 -0.0313
 1949TIP3    H123034   1.897   2.839   7.322 -0.9635  2.1965 -0.3734
 1949TIP3    H223035   1.987   2.958   7.345  2.7640 -0.5655  0.4546
 1950TIP3   OH223036   2.331   6.035   7.332 -1.0890  0.3607  0.3981
 1950TIP3    H123037   2.305   5.950   7.296 -0.9019  0.3880  0.1974
 1950TIP3    H223038   2.421   6.023   7.360 -1.5509  0.0447  1.8108
 1951TIP3   OH223039   0.748   5.015   1.999  0.3237  0.3293  0.0915
 1951TIP3    H123040   0.680   5.081   1.990  0.4925  0.7439  1.5877
 1951TIP3    H223041   0.756   4.977   1.912 -2.0543  0.0402 -0.0771
 1952TIP3   OH223042   1.689   0.666   6.799 -0.0938 -0.2736  0.1963
 1952TIP3    H123043   1.735   0.683   6.717 -0.4257  1.8338  0.3787
 1952TIP3    H223044   1.597   0.656   6.774 -0.7254  3.4733  0.4614
 1953TIP3   OH223045   3.793   1.151   7.221  0.2294  0.2288 -0.3497
 1953TIP3    H123046   3.840   1.089   7.165  0.7937  1.2590 -1.0597
 1953TIP3    H223047   3.829   1.137   7.308  2.6085  1.5956 -1.0100
 1954TIP3   OH223048   6.488   1.311   1.034  0.1195  0.5013  0.2724
 1954TIP3    H123049   6.547   1.237   1.019 -0.6176 -0.4408  1.7915
 1954TIP3    H223050   6.408   1.287   0.986 -0.6244 -0.4005  1.8791
 1955TIP3   OH223051   2.960   4.401   2.042 -0.5276 -0.5176 -0.1534
 1955TIP3    H123052   2.973   4.309   2.066 -1.2909 -0.5350  0.1977
 1955TIP3    H223053   2.962   4.449   2.125  2.8372  0.2043 -0.4887
 1956TIP3   OH223054   3.290   0.430   0.151 -0.0406 -0.4491  0.1091
 1956TIP3    H123055   3.374   0.404   0.113  1.9554  1.9445  2.5043
 1956TIP3    H223056   3.303   0.521   0.178 -3.8167  0.3947 -0.3654
 1957TIP3   OH223057   5.687   1.946   6.844 -0.4998 -0.3123  0.3973
 1957TIP3    H123058   5.717   1.855   6.849 -0.2667 -0.3908 -1.6459
 1957TIP3    H223059   5.762   1.995   6.811 -0.4123  0.7746  2.0977
 1958TIP3   OH223060   3.658   2.177   6.786  0.4289 -0.2840 -0.2606
 1958TIP3    H123061   3.598   2.162   6.859  0.1440  0.0889 -0.4156
 1958TIP3    H223062   3.719   2.243   6.819 -0.3262  0.6531 -0.7063
 1959TIP3   OH223063   6.000   3.493   0.099 -0.0114  0.0340 -0.2613
 1959TIP3    H123064   5.923   3.447   0.067  0.4712 -0.6347 -0.4921
 1959TIP3    H223065   6.039   3.434   0.164  1.3338 -0.5072 -1.4941
 1960TIP3   OH223066   2.098   1.887   0.358  0.0108 -0.3716  0.6377
 1960TIP3    H123067   2.034   1.911   0.424 -1.2038  0.7150 -0.8730
 1960TIP3    H223068   2.052   1.826   0.300  0.5316 -0.0954 -0.0908
 1961TIP3   OH223069   6.611   1.037   6.035  0.0437 -0.2968 -0.3469
 1961TIP3    H123070   6.707   1.036   6.028 -0.0189 -0.3009 -1.2909
 1961TIP3    H223071   6.588   0.946   6.054  0.3772  0.1179  2.5122
 1962TIP3   OH223072   2.227   4.594   7.640 -0.7105 -0.5972  0.2599
 1962TIP3    H123073   2.292   4.659   7.613 -1.2390 -0.9211 -1.9903
 1962TIP3    H223074   2.254   4.513   7.596 -0.3047 -1.8559  2.6826
 1963TIP3   OH223075   4.321   0.743   7.372  0.1283 -0.2379 -0.5178
 1963TIP3    H123076   4.405   0.697   7.372  0.2628 -0.0057 -1.4604
 1963TIP3    H223077   4.334   0.818   7.430  0.0835 -1.0478  0.5763
 1964TIP3   OH223078   2.242   1.222   7.000  0.4688  0.1935 -0.5655
 1964TIP3    H123079   2.322   1.256   6.960  0.1194  1.3919 -0.2869
 1964TIP3    H223080   2.263   1.131   7.021  1.2739  0.0815 -1.7611
 1965TIP3   OH223081   6.532   1.405   7.335 -0.2602  0.4061  0.3818
 1965TIP3    H123082   6.607   1.367   7.289 -0.6748 -0.5304  0.4671
 1965TIP3    H223083   6.545   1.381   7.427 -1.3912 -1.0320  0.2078
 1966TIP3   OH223084   0.847   6.337   0.518  0.4171  0.7751 -0.4088
 1966TIP3    H123085   0.840   6.295   0.432  1.3338  0.6254 -0.4289
 1966TIP3    H223086   0.889   6.421   0.500  0.7502  0.6789 -0.0999
 1967TIP3   OH223087   5.171   0.920   2.045 -0.0481 -0.0093 -0.5966
 1967TIP3    H123088   5.089   0.902   1.999 -0.4589  0.9656 -0.2709
 1967TIP3    H223089   5.223   0.841   2.032 -0.2513  0.1152 -2.5085
 1968TIP3   OH223090   5.665   0.943   0.847 -0.1381 -0.7132 -0.0365
 1968TIP3    H123091   5.668   0.977   0.758  0.4208 -0.4392  0.0767
 1968TIP3    H223092   5.660   1.022   0.902 -0.3467 -0.8748  0.1782
 1969TIP3   OH223093   1.790   1.832   1.444  0.3339 -0.5428  0.0824
 1969TIP3    H123094   1.751   1.841   1.531  1.2778 -0.2234  0.4831
 1969TIP3    H223095   1.812   1.739   1.438 -0.3168 -0.6929 -0.0809
 1970TIP3   OH223096   4.360   2.850   0.518  0.8732 -0.1615  0.0404
 1970TIP3    H123097   4.299   2.885   0.452  0.3105  0.8505  1.0474
 1970TIP3    H223098   4.412   2.786   0.471 -1.0254 -1.1299 -0.8616
 1971TIP3   OH223099   6.129   2.561   1.030 -0.6686 -0.1064  0.0054
 1971TIP3    H123100   6.148   2.508   1.108  0.4784  0.8400  0.4049
 1971TIP3    H223101   6.046   2.604   1.051  0.2818  1.2045  1.3570
 1972TIP3   OH223102   4.451   2.872   2.230 -0.5264 -0.4806  0.4501
 1972TIP3    H123103   4.529   2.846   2.181 -1.2123 -0.2163 -0.8302
 1972TIP3    H223104   4.464   2.965   2.249 -0.5716 -0.4121  0.1481
 1973TIP3   OH223105   4.112   3.800   6.586  0.0041 -0.2122  0.0361
 1973TIP3    H123106   4.167   3.761   6.518  0.0257 -2.1929  1.1045
 1973TIP3    H223107   4.027   3.814   6.543  0.4423 -0.0385 -0.7836
 1974TIP3   OH223108   1.147   0.256   7.213  0.5354  0.2103  0.1956
 1974TIP3    H123109   1.102   0.251   7.128  0.6330  2.1435 -0.0372
 1974TIP3    H223110   1.122   0.342   7.247  2.1643  0.3390  1.1681
 1975TIP3   OH223111   5.768   6.566   7.637 -0.1255  0.4108  0.4617
 1975TIP3    H123112   5.708   6.640   7.651 -2.0651 -0.5052 -2.2451
 1975TIP3    H223113   5.717   6.489   7.661  0.5624 -0.2739 -0.2403
 1976TIP3   OH223114   6.320   0.637   7.667  0.2343 -0.0513 -0.1990
 1976TIP3    H123115   6.311   0.653   7.573  0.0118 -0.2236 -0.2076
 1976TIP3    H223116   6.343   0.723   7.703 -1.4928  0.4454 -0.1775
 1977TIP3   OH223117   1.475   2.451   6.176 -0.3669 -0.3732  0.0809
 1977TIP3    H123118   1.537   2.382   6.201 -0.2609 -0.7005 -1.0265
 1977TIP3    H223119   1.393   2.424   6.216  0.7572  1.7738  4.5197
 1978TIP3   OH223120   4.262   4.754   0.103 -0.2502 -0.3584  0.2280
 1978TIP3    H123121   4.238   4.823   0.165 -0.4288  1.6004 -1.8818
 1978TIP3    H223122   4.352   4.774   0.078 -0.3625 -0.7700 -0.5502
 1979TIP3   OH223123   2.652   1.824   5.612  0.2426 -0.2158 -0.4697
 1979TIP3    H123124   2.721   1.889   5.608 -0.4192  0.5451  0.1618
 1979TIP3    H223125   2.674   1.770   5.688  0.1834 -0.0196 -0.3127
 1980TIP3   OH223126   4.469   4.425   6.860  0.0167 -0.1220  0.6553
 1980TIP3    H123127   4.473   4.441   6.765 -2.7289  0.3340  0.5547
 1980TIP3    H223128   4.559   4.400   6.883  0.6242 -0.9463 -2.1752
 1981TIP3   OH223129   3.079   0.024   0.457 -0.5411  0.2646  0.2212
 1981TIP3    H123130   3.067   0.005   0.364  1.5367  0.2799 -0.1111
 1981TIP3    H223131   3.152  -0.032   0.483 -0.7614  0.6371  1.7217
 1982TIP3   OH223132   4.380   3.202   1.817 -0.0945 -0.0937 -0.1460
 1982TIP3    H123133   4.338   3.128   1.773  0.1927  0.7911 -1.9696
 1982TIP3    H223134   4.314   3.271   1.817  0.5872  0.5785 -1.0375
 1983TIP3   OH223135   3.761   1.360   0.427  0.0422 -0.0639  0.4854
 1983TIP3    H123136   3.807   1.302   0.367  0.9113 -0.2759  1.3345
 1983TIP3    H223137   3.830   1.407   0.473 -0.6326  0.9093  0.5328
 1984TIP3   OH223138   1.154   6.331   6.148 -0.1091 -0.2679 -0.5775
 1984TIP3    H123139   1.064   6.318   6.120 -0.1008 -0.9751 -0.2888
 1984TIP3    H223140   1.170   6.425   6.134 -0.5787 -0.3163 -1.4999
 1985TIP3   OH223141   1.259   3.260   6.879  0.0782  0.5720 -1.1086
 1985TIP3    H123142   1.338   3.207   6.878 -0.5343 -0.5057  0.9814
 1985TIP3    H223143   1.280   3.333   6.938 -0.3077  0.5542 -0.9445
 1986TIP3   OH223144   6.278   0.589   6.768  0.2607 -0.1913  0.3644
 1986TIP3    H123145   6.348   0.652   6.784  0.6150  0.1486 -2.1025
 1986TIP3    H223146   6.315   0.505   6.792  1.0350  0.1608  0.4232
 1987TIP3   OH223147   2.939   4.345   0.025  0.0069  0.0221  0.5040
 1987TIP3    H123148   2.991   4.276   0.065  0.6056  0.7124  0.9425
 1987TIP3    H223149   2.981   4.426   0.054 -0.3864  0.5600 -0.4018
 1988TIP3   OH223150   5.484   1.414   0.952  0.0116 -0.2593 -0.0716
 1988TIP3    H123151   5.500   1.459   0.869 -1.0807 -1.4556 -0.9851
 1988TIP3    H223152   5.391   1.390   0.948 -0.2397  0.2552  1.8153
 1989TIP3   OH223153   2.720   3.223   6.190 -0.1237  0.3876  0.5022
 1989TIP3    H123154   2.684   3.171   6.262 -0.0743 -0.3431  0.0103
 1989TIP3    H223155   2.809   3.245   6.218 -0.2643  0.5060  0.8611
 1990TIP3   OH223156   0.733   2.060   7.081 -0.4750 -0.5907  0.3270
 1990TIP3    H123157   0.800   1.992   7.070 -0.6750 -0.7287 -0.0968
 1990TIP3    H223158   0.651   2.011   7.087 -0.6887 -0.3722 -0.5901
 1991TIP3   OH223159   1.600   2.024   0.548 -0.0509  0.3395  0.6540
 1991TIP3    H123160   1.627   2.099   0.495 -0.1663  0.9299  1.3987
 1991TIP3    H223161   1.561   1.963   0.486  0.3218  0.7620 -0.0111
 1992TIP3   OH223162   5.919   3.235   6.983 -0.6515  0.3253  0.0049
 1992TIP3    H123163   5.986   3.188   7.033  0.0519 -0.2677 -1.4178
 1992TIP3    H223164   5.916   3.189   6.899 -2.3948  0.7554 -0.1998
 1993TIP3   OH223165   4.831   2.980   6.153 -0.1389  0.2850  0.5186
 1993TIP3    H123166   4.827   3.030   6.235 -1.5197 -1.4431  1.5824
 1993TIP3    H223167   4.775   2.904   6.169  0.4854 -0.6999 -1.6472
 1994TIP3   OH223168   3.980   4.346   7.740  0.0291  0.5415 -0.2770
 1994TIP3    H123169   4.006   4.436   7.761  0.1329  0.4822 -0.1456
 1994TIP3    H223170   3.917   4.323   7.808  1.0770  0.0159  0.5574
 1995TIP3   OH223171   0.239   2.888   6.720 -0.3971  0.7357 -0.1484
 1995TIP3    H123172   0.292   2.810   6.737  0.0628  1.1704  0.4537
 1995TIP3    H223173   0.154   2.854   6.693  0.2787  0.0170 -1.4544
 1996TIP3   OH223174   5.250   4.890   0.469  0.3401 -0.0108  0.4451
 1996TIP3    H123175   5.217   4.861   0.554 -0.4444  1.0369  0.5167
 1996TIP3    H223176   5.214   4.827   0.406 -1.5540  0.8975  0.5632
 1997TIP3   OH223177   3.996   2.770   5.767 -0.6703 -0.3858 -0.3936
 1997TIP3    H123178   3.905   2.794   5.752 -0.9064 -1.5570 -1.0459
 1997TIP3    H223179   3.999   2.676   5.747  0.7896 -0.2540 -0.9251
 1998TIP3   OH223180   4.546   2.753   1.635 -0.3803  0.6646  0.2213
 1998TIP3    H123181   4.610   2.744   1.564 -0.5243  1.5669 -0.0318
 1998TIP3    H223182   4.554   2.844   1.663 -0.4422  0.3612  1.2639
 1999TIP3   OH223183   2.224   0.979   1.559  0.2880  0.0851 -0.0759
 1999TIP3    H123184   2.278   0.950   1.632  1.9142 -0.5179 -1.4499
 1999TIP3    H223185   2.266   1.060   1.529  0.3340 -0.2873 -1.0496
 2000TIP3   OH223186   6.399   2.015   6.284 -0.8793 -0.1856 -0.5350
 2000TIP3    H123187   6.336   1.965   6.336  0.2607  0.6703  1.8387
 2000TIP3    H223188   6.408   1.966   6.203 -2.6097 -1.7262  0.1259
 2001TIP3   OH223189   6.358   1.940   1.478 -0.0272  0.1827 -0.0402
 2001TIP3    H123190   6.394   1.915   1.563 -0.7129 -1.0685 -0.0938
 2001TIP3    H223191   6.343   1.857   1.433 -2.0129  0.6847 -0.3897
 2002TIP3   OH223192   2.490   4.342   7.049  0.2761 -0.6543  0.6477
 2002TIP3    H123193   2.451   4.381   7.127 -0.2644 -0.4729  0.2932
 2002TIP3    H223194   2.582   4.371   7.051  0.1122 -0.1342  0.8870
 2003TIP3   OH223195   6.613   1.507   6.437  0.1295  0.8096  0.3247
 2003TIP3    H123196   6.707   1.521   6.447 -0.0501  1.6738  0.9312
 2003TIP3    H223197   6.582   1.584   6.390 -0.1544  0.1125 -0.6684
 2004TIP3   OH223198   5.096   2.833   5.803  0.0590 -0.0798  0.1474
 2004TIP3    H123199   5.164   2.788   5.853  0.0426  0.4741  0.6778
 2004TIP3    H223200   5.014   2.793   5.832 -0.1065  1.3641  1.8424
 2005TIP3   OH223201   1.831   5.455   7.544 -0.2998  0.1313  0.2335
 2005TIP3    H123202   1.771   5.384   7.566  2.2776 -2.0944  0.6608
 2005TIP3    H223203   1.817   5.521   7.612 -1.3334 -0.9216  1.0717
 2006TIP3   OH223204   0.949   1.124   1.902  0.0490 -0.4347  0.0429
 2006TIP3    H123205   0.991   1.203   1.937  2.1355 -0.7648 -1.5649
 2006TIP3    H223206   0.860   1.152   1.881  0.5730  1.3382  0.0359
 2007TIP3   OH223207   1.608   1.471   5.123  0.2356  0.3422  0.6747
 2007TIP3    H123208   1.634   1.562   5.110  0.0496  0.4767  1.2410
 2007TIP3    H223209   1.687   1.420   5.100 -0.6032  0.3877 -3.0613
 2008TIP3   OH223210   4.372   3.801   5.912  0.6638 -0.3481  0.0248
 2008TIP3    H123211   4.343   3.760   5.994 -0.4017 -0.0343 -0.1810
 2008TIP3    H223212   4.390   3.727   5.854 -0.2262 -0.5627  0.0006
 2009TIP3   OH223213   4.089   5.742   0.904 -1.1409  1.0431  0.0517
 2009TIP3    H123214   4.012   5.798   0.894 -1.6557  0.3470  0.0537
 2009TIP3    H223215   4.061   5.675   0.967 -1.0824 -0.1781 -1.1862
 2010TIP3   OH223216   4.069   2.654   0.056 -0.2005  0.5171 -0.0741
 2010TIP3    H123217   4.042   2.726   0.001 -1.6025  0.3021  0.2991
 2010TIP3    H223218   3.988   2.608   0.078  0.7786 -2.3865 -1.9294
 2011TIP3   OH223219   6.635   5.669   0.491 -0.6787  0.3162  0.2867
 2011TIP3    H123220   6.588   5.687   0.410  2.0521 -0.2329 -1.5450
 2011TIP3    H223221   6.724   5.702   0.476  1.3546 -4.0792  1.0920
 2012TIP3   OH223222   2.674   0.240   1.141  0.0231 -0.4409 -0.0535
 2012TIP3    H123223   2.582   0.254   1.162 -0.1852 -1.3842 -0.3152
 2012TIP3    H223224   2.678   0.153   1.103  0.7627  0.2688 -1.6972
 2013TIP3   OH223225   0.668   0.728   1.645 -0.0537 -0.6832 -0.1881
 2013TIP3    H123226   0.594   0.667   1.645  0.0208 -0.7736  0.1251
 2013TIP3    H223227   0.741   0.678   1.680 -0.3069 -0.0490  1.3284
 2014TIP3   OH223228   2.289   2.087   0.650 -0.2371  0.3460  0.4637
 2014TIP3    H123229   2.286   2.180   0.672  0.1895  0.3982  0.3251
 2014TIP3    H223230   2.217   2.048   0.698 -2.0804  1.1670 -1.4886
 2015TIP3   OH223231   0.626   2.833   0.137  0.6683 -0.2324  0.2135
 2015TIP3    H123232   0.717   2.859   0.152  0.4707  0.1129  0.8917
 2015TIP3    H223233   0.592   2.814   0.225  0.3536 -1.2933 -0.1129
 2016TIP3   OH223234   2.661   3.358   1.093  0.3343  0.5694 -0.3800
 2016TIP3    H123235   2.659   3.405   1.177  0.1723  0.3268 -0.2483
 2016TIP3    H223236   2.650   3.427   1.027 -2.6859  0.4487 -0.1030
 2017TIP3   OH223237   2.992   4.145   2.109  0.1915  0.0441 -0.3020
 2017TIP3    H123238   3.026   4.057   2.125  1.8234  0.9428  1.6414
 2017TIP3    H223239   2.977   4.181   2.196 -0.9479  1.5193 -1.0684
 2018TIP3   OH223240   2.866   3.156   7.273 -0.4249  0.0010  0.0747
 2018TIP3    H123241   2.843   3.125   7.186  0.0795 -0.3747  0.0760
 2018TIP3    H223242   2.811   3.234   7.286  1.5782  1.8274 -1.7585
 2019TIP3   OH223243   0.246   3.543   7.149 -0.3701 -0.4646 -0.4765
 2019TIP3    H123244   0.159   3.534   7.189 -0.4685  0.4194 -0.4673
 2019TIP3    H223245   0.252   3.469   7.088 -0.7392 -1.0774  0.2156
 2020TIP3   OH223246   1.031   5.933   0.940 -0.4300  0.0018 -0.3697
 2020TIP3    H123247   1.010   5.998   1.008 -1.3462  0.5366 -1.1344
 2020TIP3    H223248   1.083   5.867   0.986 -0.9101  0.4179  0.8275
 2021TIP3   OH223249   3.657   2.304   7.058  0.2152 -0.5354 -0.2867
 2021TIP3    H123250   3.596   2.232   7.038  1.0058 -0.8279 -1.8210
 2021TIP3    H223251   3.604   2.368   7.105 -0.1757 -2.7209  2.5612
 2022TIP3   OH223252   2.380   5.699   7.618 -0.3685 -0.1318 -0.4826
 2022TIP3    H123253   2.389   5.707   7.713  3.1320 -1.4182 -0.5794
 2022TIP3    H223254   2.300   5.748   7.598 -0.2976  1.6883  2.9040
 2023TIP3   OH223255   3.029   5.525   1.621 -0.0909 -0.0745  0.1398
 2023TIP3    H123256   3.007   5.508   1.712 -0.4155  0.9238  0.2636
 2023TIP3    H223257   2.950   5.500   1.573  0.2159 -0.9563  0.0899
 2024TIP3   OH223258   3.702   1.281   1.970  0.9100  0.0123 -0.3329
 2024TIP3    H123259   3.623   1.257   1.921  1.5774  0.5820 -1.7402
 2024TIP3    H223260   3.674   1.354   2.025  0.4563  0.2367 -0.8509
 2025TIP3   OH223261   0.094   4.228   6.721 -0.0359  0.0644  0.2361
 2025TIP3    H123262   0.167   4.254   6.665  1.3483  0.9294  2.3172
 2025TIP3    H223263   0.115   4.139   6.748  0.0624  0.1858  0.5577
 2026TIP3   OH223264   0.316   3.733   6.598  0.1612  0.1555  0.2775
 2026TIP3    H123265   0.258   3.734   6.522 -0.8010  1.0849  0.9906
 2026TIP3    H223266   0.257   3.727   6.673  0.8631  2.2862  1.0928
 2027TIP3   OH223267   1.578   4.837   6.238 -0.5093  0.2395 -0.1825
 2027TIP3    H123268   1.599   4.788   6.158 -0.1984  0.9559 -0.5508
 2027TIP3    H223269   1.633   4.915   6.234 -0.6587  0.4007  0.6238
 2028TIP3   OH223270   3.247   3.980   0.616  0.0275 -0.1982 -0.0818
 2028TIP3    H123271   3.333   4.004   0.584  0.0936  0.9210  0.8552
 2028TIP3    H223272   3.203   4.064   0.634 -0.5849 -0.7417  1.1387
 2029TIP3   OH223273   1.244   0.587   7.077 -0.0145  0.4473 -0.1161
 2029TIP3    H123274   1.172   0.630   7.030 -0.5713 -0.8056 -0.4538
 2029TIP3    H223275   1.209   0.571   7.165  0.3609  1.0996  0.1568
 2030TIP3   OH223276   2.762   4.793   1.298 -0.1242  0.3433  0.4023
 2030TIP3    H123277   2.757   4.875   1.347 -0.6401  0.5246  0.0613
 2030TIP3    H223278   2.671   4.770   1.281  0.0291 -0.0973  0.1568
 2031TIP3   OH223279   2.892   2.784   7.364 -0.0409  0.3768 -0.0866
 2031TIP3    H123280   2.966   2.824   7.319  0.1342 -0.5800 -0.6683
 2031TIP3    H223281   2.856   2.855   7.418  1.4760  0.7699  0.4547
 2032TIP3   OH223282   5.212   4.020   2.230  0.1443  0.4723 -0.2228
 2032TIP3    H123283   5.285   3.998   2.287  0.7145  2.7090 -0.0069
 2032TIP3    H223284   5.196   4.113   2.245 -0.3171  0.9387 -2.9770
 2033TIP3   OH223285   3.778   0.589   7.125 -0.0626 -0.8470 -0.8443
 2033TIP3    H123286   3.845   0.571   7.058  2.3157  2.3296  0.4567
 2033TIP3    H223287   3.716   0.648   7.081  1.6025  1.3970 -0.3651
 2034TIP3   OH223288   2.196   4.034   7.216 -0.1481 -0.1396 -0.4343
 2034TIP3    H123289   2.171   4.125   7.231  1.0490  0.5698 -2.4109
 2034TIP3    H223290   2.250   4.036   7.138 -0.8990 -2.6939 -1.1203
 2035TIP3   OH223291   4.711   4.589   0.602  0.4331  0.2539 -0.0171
 2035TIP3    H123292   4.696   4.497   0.621 -0.7909  0.4515  0.0642
 2035TIP3    H223293   4.705   4.595   0.506  1.2186  0.1428 -0.0795
 2036TIP3   OH223294   2.155   3.715   2.300 -0.2356  0.6952 -0.5962
 2036TIP3    H123295   2.064   3.691   2.321  0.0785 -0.7419 -0.7715
 2036TIP3    H223296   2.186   3.760   2.378 -0.4722 -0.6419  0.3005
 2037TIP3   OH223297   1.895   3.980   0.480  0.6310 -0.0086 -0.1427
 2037TIP3    H123298   1.857   4.005   0.396  0.8803  0.2986 -0.1695
 2037TIP3    H223299   1.836   3.914   0.515 -0.3582  1.0238  0.1827
 2038TIP3   OH223300   0.029   0.481   1.152  0.4280 -0.1702 -0.0382
 2038TIP3    H123301   0.112   0.450   1.189 -0.4196 -1.8811  0.5694
 2038TIP3    H223302  -0.030   0.405   1.159 -0.6708  0.4039 -2.1514
 2039TIP3   OH223303   0.600   4.445   7.629 -0.0428  0.4647  0.0301
 2039TIP3    H123304   0.557   4.463   7.713 -1.0620 -0.1355 -0.3501
 2039TIP3    H223305   0.551   4.372   7.591  0.8814  0.2160 -0.7502
 2040TIP3   OH223306   3.168   2.459   1.581  0.0484 -0.5687 -0.0120
 2040TIP3    H123307   3.184   2.443   1.488  1.4352 -0.6888  0.2201
 2040TIP3    H223308   3.207   2.383   1.625  3.4055  1.4964  0.8945
 2041TIP3   OH223309   2.809   2.732   6.590  0.0979  0.3196 -0.0458
 2041TIP3    H123310   2.890   2.699   6.550 -0.4927  0.7823 -1.6983
 2041TIP3    H223311   2.775   2.657   6.640  0.9754 -0.2109 -0.2145
 2042TIP3   OH223312   5.430   5.502   7.468 -0.0387 -0.4424 -0.7011
 2042TIP3    H123313   5.501   5.438   7.461  0.1638 -0.1398 -1.5474
 2042TIP3    H223314   5.475   5.586   7.474 -0.3215 -0.2812 -0.8294
 2043TIP3   OH223315   0.657   4.811   2.167 -0.0939 -0.2593 -0.3356
 2043TIP3    H123316   0.694   4.844   2.248  0.4167 -0.9478 -0.2833
 2043TIP3    H223317   0.712   4.849   2.098 -0.5587  0.3669 -0.3786
 2044TIP3   OH223318   2.785   6.184   7.456  0.1935  0.2591  0.3994
 2044TIP3    H123319   2.799   6.270   7.497  0.2796 -0.9132  3.0670
 2044TIP3    H223320   2.866   6.136   7.476  0.4292 -0.2649 -1.6523
 2045TIP3   OH223321   0.491   6.028   1.301 -0.5193 -0.6058 -0.5942
 2045TIP3    H123322   0.507   5.991   1.214 -0.1701 -2.9593  0.4050
 2045TIP3    H223323   0.497   6.122   1.288  2.9913 -0.9152 -2.4899
 2046TIP3   OH223324   2.904   6.025   2.028 -0.0104 -0.0385 -0.7555
 2046TIP3    H123325   2.971   6.023   2.096  3.0485  1.7836 -3.4261
 2046TIP3    H223326   2.914   5.941   1.982  1.1707  0.5977 -1.7094
 2047TIP3   OH223327   4.017   0.418   7.713  0.2058 -0.5288 -0.1474
 2047TIP3    H123328   4.102   0.413   7.758  0.6460  1.5416 -0.6676
 2047TIP3    H223329   4.040   0.428   7.621 -0.6270 -0.5296 -0.3574
 2048TIP3   OH223330   1.413   2.804   0.840 -0.4276 -0.3252 -0.0860
 2048TIP3    H123331   1.325   2.812   0.805 -0.4872 -1.1884 -0.1563
 2048TIP3    H223332   1.431   2.710   0.841  0.5790 -0.1540 -0.2849
 2049TIP3   OH223333   3.897   4.855   6.802 -0.1702  0.0891  0.3456
 2049TIP3    H123334   3.893   4.770   6.845  0.2404 -0.5704 -0.8906
 2049TIP3    H223335   3.805   4.880   6.791 -0.3407  1.4056  3.6796
 2050TIP3   OH223336   5.244   6.135   7.534 -0.3033 -0.1738  0.3548
 2050TIP3    H123337   5.299   6.066   7.498 -0.4088  0.2642 -0.6773
 2050TIP3    H223338   5.261   6.211   7.479 -1.1176  0.2791  0.6994
 2051TIP3   OH223339   5.607   6.393   0.776 -0.0005  0.3170 -0.3155
 2051TIP3    H123340   5.696   6.371   0.747  0.2920  1.7539 -0.6047
 2051TIP3    H223341   5.572   6.446   0.704 -0.2014  1.7832  0.8066
 2052TIP3   OH223342   4.924   2.369   2.088  0.1556  0.2293  0.4310
 2052TIP3    H123343   4.936   2.281   2.124  0.3063  0.0725  0.0087
 2052TIP3    H223344   4.831   2.374   2.067  0.4095 -0.3970 -0.9643
 2053TIP3   OH223345   3.235   0.774   1.792  0.2087 -0.5685  0.0102
 2053TIP3    H123346   3.283   0.850   1.823 -0.1224 -0.4304  0.1909
 2053TIP3    H223347   3.143   0.797   1.803  0.0937 -0.6930 -0.6726
 2054TIP3   OH223348   2.953   1.646   6.192  0.5917 -0.3297  0.2928
 2054TIP3    H123349   2.976   1.670   6.102 -0.8191 -1.5874 -0.4563
 2054TIP3    H223350   2.910   1.723   6.227  0.6923  0.0055 -0.2994
 2055TIP3   OH223351   1.986   3.810   1.246 -0.7064 -0.2423 -0.3278
 2055TIP3    H123352   1.905   3.790   1.293 -0.4242 -3.3117 -0.9265
 2055TIP3    H223353   1.977   3.764   1.162  1.5617 -0.4837 -0.4932
 2056TIP3   OH223354   6.121   3.795   7.552  0.2845  0.0028 -0.0997
 2056TIP3    H123355   6.073   3.876   7.569 -0.0210 -0.5071  1.6361
 2056TIP3    H223356   6.069   3.750   7.486 -0.0355  0.7785 -0.3928
 2057TIP3   OH223357   0.745   0.649   6.696 -0.0316  0.0901 -0.0600
 2057TIP3    H123358   0.736   0.708   6.621  0.3724 -1.8492 -1.6936
 2057TIP3    H223359   0.837   0.621   6.694 -0.4527 -1.3517  0.0865
 2058TIP3   OH223360   3.211   6.223   0.233 -0.2354  0.7035  0.2235
 2058TIP3    H123361   3.296   6.179   0.232  0.0700  1.2475  1.2918
 2058TIP3    H223362   3.160   6.176   0.167  0.7017 -0.0065 -0.0249
 2059TIP3   OH223363   5.364   1.125   5.665 -0.2755 -0.2071 -0.0484
 2059TIP3    H123364   5.352   1.047   5.719 -0.9110  0.7755  1.2970
 2059TIP3    H223365   5.448   1.111   5.621 -0.6312 -1.8737 -0.2840
 2060TIP3   OH223366   0.265   4.973   1.288 -0.4100  0.2179  0.2400
 2060TIP3    H123367   0.332   4.948   1.352  1.2189 -2.3126 -2.2109
 2060TIP3    H223368   0.185   4.932   1.319  0.4807 -1.4585  0.4090
 2061TIP3   OH223369   2.399   0.366   0.677 -0.2889  0.2886  0.0272
 2061TIP3    H123370   2.404   0.451   0.720  2.1105  0.7094 -0.8955
 2061TIP3    H223371   2.346   0.312   0.735  0.1997  1.7114  1.8862
 2062TIP3   OH223372   5.317   3.644   2.123 -0.3473 -0.5344 -0.1926
 2062TIP3    H123373   5.282   3.731   2.143 -0.3204 -0.4369 -0.5641
 2062TIP3    H223374   5.349   3.611   2.207 -0.5985 -0.2938 -0.0007
 2063TIP3   OH223375   1.785   3.688   1.844  0.4533 -0.2332 -0.0065
 2063TIP3    H123376   1.737   3.714   1.765  0.0923  0.2287  0.3633
 2063TIP3    H223377   1.757   3.750   1.911 -1.2589 -2.1523  1.1798
 2064TIP3   OH223378   3.547   5.600   7.704 -0.1042  0.5233 -0.2357
 2064TIP3    H123379   3.620   5.559   7.657 -0.6557  0.3960 -0.9998
 2064TIP3    H223380   3.570   5.591   7.797  0.8539  0.5017 -0.4673
 2065TIP3   OH223381   0.271   2.840   0.952  0.2060  0.0385 -0.4096
 2065TIP3    H123382   0.259   2.746   0.940 -0.7048  0.3234 -2.0076
 2065TIP3    H223383   0.366   2.853   0.954  0.3437 -0.7935 -1.3058
 2066TIP3   OH223384   5.184   4.567   2.303  0.1490  0.8329  0.3569
 2066TIP3    H123385   5.179   4.662   2.311  0.1807  0.7790  1.0465
 2066TIP3    H223386   5.246   4.540   2.371  1.9771  0.5293 -1.3536
 2067TIP3   OH223387   0.846   6.574   1.062 -0.6066  0.1852 -0.1835
 2067TIP3    H123388   0.877   6.644   1.004  0.7489 -0.5352 -0.3760
 2067TIP3    H223389   0.783   6.526   1.009 -0.4351  0.3813 -0.5697
 2068TIP3   OH223390   2.532   0.572   7.238 -0.0002 -0.4300 -0.1301
 2068TIP3    H123391   2.474   0.584   7.313 -0.4542 -0.4411 -0.4770
 2068TIP3    H223392   2.613   0.615   7.264  0.2032 -1.3135  0.7782
 2069TIP3   OH223393   2.364   1.745   5.820 -0.1563  0.2088  0.1122
 2069TIP3    H123394   2.338   1.837   5.820 -1.1011 -0.0165 -1.6803
 2069TIP3    H223395   2.459   1.747   5.810 -0.3758  1.0168 -2.2541
 2070TIP3   OH223396   1.623   0.565   0.252  0.6070 -0.4063 -0.1160
 2070TIP3    H123397   1.583   0.595   0.170 -1.3346  1.0487  1.2813
 2070TIP3    H223398   1.673   0.641   0.283  1.2425 -0.9191  0.1499
 2071TIP3   OH223399   1.478   4.958   6.889  0.2318 -0.0151  0.4421
 2071TIP3    H123400   1.478   4.882   6.831  1.6180 -0.4885  1.0068
 2071TIP3    H223401   1.405   4.942   6.949 -0.7363  0.1095 -0.6664
 2072TIP3   OH223402   3.292   6.515   0.552 -0.8822 -0.0699  0.7893
 2072TIP3    H123403   3.364   6.576   0.562 -1.0439  0.5624 -1.3753
 2072TIP3    H223404   3.327   6.444   0.499 -2.2345  1.1597 -1.9583
 2073TIP3   OH223405   3.483   4.713   1.588 -0.0137  0.1066 -0.4729
 2073TIP3    H123406   3.414   4.704   1.522 -1.1542  0.5057  0.6185
 2073TIP3    H223407   3.487   4.626   1.629 -0.9449  0.4797  0.4577
 2074TIP3   OH223408   5.144   0.767   7.729  0.3505  0.5577  0.5544
 2074TIP3    H123409   5.111   0.693   7.678 -2.1428  0.5890  1.9584
 2074TIP3    H223410   5.229   0.786   7.691 -0.6368 -0.4763 -2.4966
 2075TIP3   OH223411   3.267   3.947   1.140  0.4345 -0.6368 -0.1597
 2075TIP3    H123412   3.322   3.936   1.062  0.4791  0.7479 -0.3627
 2075TIP3    H223413   3.290   4.035   1.172 -2.0803  0.2593 -0.6195
 2076TIP3   OH223414   3.774   1.125   5.419  0.3307 -0.1177 -1.0578
 2076TIP3    H123415   3.846   1.186   5.436  0.4942 -0.4258 -0.6150
 2076TIP3    H223416   3.816   1.041   5.404  0.0856 -0.2049 -1.2605
 2077TIP3   OH223417   0.322   5.171   1.676  0.7491  0.4844  0.1874
 2077TIP3    H123418   0.408   5.148   1.641  0.4586  0.1029 -0.2934
 2077TIP3    H223419   0.340   5.223   1.754  1.4186  1.6702 -0.7291
 2078TIP3   OH223420   3.137   1.976   1.683  0.4517  0.1547  0.3598
 2078TIP3    H123421   3.054   1.955   1.727  1.4677 -1.2855  1.7469
 2078TIP3    H223422   3.111   2.022   1.603 -1.8025 -1.8887 -0.2294
 2079TIP3   OH223423   3.191   1.211   0.707 -0.1317 -0.6690 -0.6569
 2079TIP3    H123424   3.265   1.174   0.657  0.6095 -0.2530  0.1041
 2079TIP3    H223425   3.175   1.146   0.776 -1.1975 -1.2759 -1.4521
 2080TIP3   OH223426   6.046   3.165   1.129  0.3628  0.0023  0.0712
 2080TIP3    H123427   5.997   3.128   1.056 -0.9693  1.6940  0.0415
 2080TIP3    H223428   6.004   3.249   1.147  1.1727  0.0287  2.2545
 2081TIP3   OH223429   1.917   2.986   6.347  0.1062 -0.0479  0.5280
 2081TIP3    H123430   1.824   2.999   6.367  0.7732  2.4572  2.5093
 2081TIP3    H223431   1.946   2.918   6.408 -0.4598 -1.1907 -0.4250
 2082TIP3   OH223432   1.397   2.216   0.307 -0.7227  0.2503  1.0737
 2082TIP3    H123433   1.479   2.212   0.356 -0.6433  0.1753  0.9352
 2082TIP3    H223434   1.381   2.126   0.279 -0.5509  0.3660  0.6079
 2083TIP3   OH223435   1.184   2.607   0.362 -0.1075 -0.1349 -0.1384
 2083TIP3    H123436   1.107   2.639   0.409 -0.8266 -0.6709 -0.9155
 2083TIP3    H223437   1.205   2.523   0.402 -1.2511 -1.0144 -1.2715
 2084TIP3   OH223438   2.039   1.678   3.898  0.0544  0.0632  0.1071
 2084TIP3    H123439   2.014   1.706   3.810 -0.3319  0.5427  0.3667
 2084TIP3    H223440   2.048   1.759   3.948  0.9230 -0.1667  0.3472
 2085TIP3   OH223441   0.342   2.108   1.329 -0.1786  1.1770  0.6464
 2085TIP3    H123442   0.415   2.046   1.330 -1.5994 -0.5530  0.9306
 2085TIP3    H223443   0.344   2.146   1.241 -1.5055 -2.1052 -0.9518
 2086TIP3   OH223444   3.009   5.796   1.012  0.4899  0.1354 -0.6684
 2086TIP3    H123445   2.928   5.817   1.058  0.9004 -0.6680  0.4753
 2086TIP3    H223446   3.005   5.702   0.997 -0.3402  0.5563 -3.7743
 2087TIP3   OH223447   1.790   4.157   2.426 -0.0902 -0.0849  0.5508
 2087TIP3    H123448   1.815   4.249   2.416 -0.3342 -0.0583  0.1855
 2087TIP3    H223449   1.827   4.132   2.511 -1.0768  0.7149  1.2559
 2088TIP3   OH223450   4.415   4.439   6.417 -0.0192  0.2834  0.6339
 2088TIP3    H123451   4.346   4.410   6.358  0.7658  1.5709 -0.9899
 2088TIP3    H223452   4.439   4.360   6.465 -1.0572 -0.6981 -0.3822
 2089TIP3   OH223453   1.823   3.827   6.292 -0.1513  0.0745 -0.1642
 2089TIP3    H123454   1.856   3.845   6.380 -2.3961  1.7071  0.4219
 2089TIP3    H223455   1.730   3.808   6.304 -0.7709  1.3944 -2.2409
 2090TIP3   OH223456   2.439   5.206   0.549  0.0373  0.0011 -0.2851
 2090TIP3    H123457   2.370   5.221   0.484 -0.3842  1.0687  0.3939
 2090TIP3    H223458   2.448   5.111   0.551 -0.7306 -0.1105 -1.0863
 2091TIP3   OH223459   3.672   4.842   1.742  0.2861 -0.2880 -0.5676
 2091TIP3    H123460   3.705   4.753   1.748  0.3589 -0.2106  0.3083
 2091TIP3    H223461   3.606   4.838   1.673 -1.5741 -1.6515  1.1353
 2092TIP3   OH223462   6.629   0.732   0.567 -0.3962 -0.2163 -0.2156
 2092TIP3    H123463   6.690   0.715   0.639 -1.6208 -2.0630  0.4621
 2092TIP3    H223464   6.610   0.825   0.574  2.0978  0.3820 -0.3089
 2093TIP3   OH223465   4.927   3.219   2.006  0.1394  0.1374  0.1470
 2093TIP3    H123466   4.966   3.296   2.047  0.9288 -0.3170  0.2690
 2093TIP3    H223467   4.939   3.149   2.070 -0.6997 -0.0612  0.0985
 2094TIP3   OH223468   1.245   3.288   5.840 -0.5749  0.6227 -0.2866
 2094TIP3    H123469   1.272   3.243   5.760  0.7311  1.3121 -0.2677
 2094TIP3    H223470   1.325   3.330   5.871 -0.4279 -1.4892  2.6415
 2095TIP3   OH223471   3.914   5.507   1.600  0.2023  0.1173  0.1116
 2095TIP3    H123472   3.913   5.510   1.695 -1.1271 -0.6187  0.1469
 2095TIP3    H223473   3.912   5.599   1.573 -1.1877  0.3078  0.8116
 2096TIP3   OH223474   1.558   5.575   6.390 -0.3462 -0.3284  0.3922
 2096TIP3    H123475   1.568   5.543   6.301 -2.8081 -0.8784  0.2474
 2096TIP3    H223476   1.550   5.670   6.381 -0.0270 -0.3257  0.1081
 2097TIP3   OH223477   5.510   2.687   0.381 -0.5496  0.5653  0.2286
 2097TIP3    H123478   5.552   2.677   0.295 -1.5112 -0.1439 -0.1791
 2097TIP3    H223479   5.540   2.610   0.431 -1.4742 -0.0373 -0.1228
 2098TIP3   OH223480   0.341   6.209   0.371  0.4487  0.0295 -0.4800
 2098TIP3    H123481   0.272   6.220   0.437  0.3642  0.2645 -0.6087
 2098TIP3    H223482   0.302   6.241   0.290 -0.2990 -2.4820 -1.1766
 2099TIP3   OH223483   1.392   3.626   6.541 -0.8145  0.0134 -0.1209
 2099TIP3    H123484   1.459   3.623   6.610 -1.3444 -1.5217  0.3686
 2099TIP3    H223485   1.349   3.541   6.545 -1.6027  0.2976 -1.6407
 2100TIP3   OH223486   5.877   4.697   0.678 -0.2158 -0.4567 -0.0565
 2100TIP3    H123487   5.961   4.743   0.668 -0.5403 -0.1753 -1.8623
 2100TIP3    H223488   5.817   4.743   0.619 -1.5629 -0.8813  0.9301
 2101TIP3   OH223489   5.251   2.477   6.900 -0.2409 -0.2129  0.2410
 2101TIP3    H123490   5.210   2.517   6.824  0.5550 -2.2120 -1.3473
 2101TIP3    H223491   5.185   2.417   6.934  0.0353 -0.6729 -0.0232
 2102TIP3   OH223492   2.661   4.825   7.688  0.5368  0.7181  0.7266
 2102TIP3    H123493   2.584   4.793   7.736  1.4126 -1.4336  0.8273
 2102TIP3    H223494   2.731   4.827   7.754  1.0606  0.5844  0.1867
 2103TIP3   OH223495   1.254   5.779   1.610 -0.0504  0.0294  0.3126
 2103TIP3    H123496   1.176   5.724   1.606  0.0845 -0.1982  0.7190
 2103TIP3    H223497   1.220   5.867   1.627 -0.2156 -0.0812  0.5648
 2104TIP3   OH223498   0.634   4.072   2.312 -0.6477  0.0292 -0.8309
 2104TIP3    H123499   0.727   4.093   2.316 -0.6241  0.1278 -1.7093
 2104TIP3    H223500   0.631   3.979   2.289 -0.7700 -0.3709  0.6861
 2105TIP3   OH223501   1.036   4.265   0.927 -0.0838 -0.6016 -0.7571
 2105TIP3    H123502   1.051   4.224   1.012 -2.1557 -1.8537 -0.9333
 2105TIP3    H223503   1.071   4.353   0.936  2.8549 -1.7458  0.2542
 2106TIP3   OH223504   1.937   4.549   0.668  0.2042  0.3792  0.1416
 2106TIP3    H123505   1.961   4.460   0.643  0.5016  0.1407  1.2176
 2106TIP3    H223506   1.929   4.596   0.585  2.8792  0.0928 -0.3562
 2107TIP3   OH223507   4.338   3.306   0.192  0.0560 -0.0227  1.1096
 2107TIP3    H123508   4.260   3.352   0.222 -0.7610  0.2454 -1.1983
 2107TIP3    H223509   4.309   3.216   0.179 -0.5421  0.4827 -1.7096
 2108TIP3   OH223510   4.182   2.375   5.856  0.0111  0.5118  0.0074
 2108TIP3    H123511   4.103   2.411   5.816 -0.0455  1.2312  0.7327
 2108TIP3    H223512   4.253   2.430   5.822  0.0637  0.5883  0.2424
 2109TIP3   OH223513   0.514   6.056   0.260 -0.3454 -0.0509  0.2521
 2109TIP3    H123514   0.440   6.099   0.303  0.0978 -0.1210  1.1080
 2109TIP3    H223515   0.586   6.064   0.322  0.4142  0.1407 -0.6307
 2110TIP3   OH223516   2.271   0.486   0.067  0.3421  0.0979 -0.1661
 2110TIP3    H123517   2.263   0.405   0.118  0.6562  0.0835 -0.1429
 2110TIP3    H223518   2.188   0.491   0.019  0.3513 -0.2801 -0.2266
 2111TIP3   OH223519   0.422   5.423   1.456 -0.4167 -0.4155 -0.2129
 2111TIP3    H123520   0.463   5.509   1.449 -1.9138  0.4024  0.6580
 2111TIP3    H223521   0.368   5.428   1.534 -1.1796 -1.8887 -0.6087
 2112TIP3   OH223522   3.684   0.517   1.245  0.0041  0.6886 -0.1446
 2112TIP3    H123523   3.648   0.450   1.303  0.1811  0.7675  0.0601
 2112TIP3    H223524   3.753   0.472   1.196 -1.7794 -0.0374 -2.1135
 2113TIP3   OH223525   5.029   1.247   7.035 -0.0817 -0.2220 -0.9059
 2113TIP3    H123526   4.957   1.207   6.986  0.2251  1.2808 -2.6720
 2113TIP3    H223527   4.986   1.288   7.110 -1.1360  0.7802 -2.0180
 2114TIP3   OH223528   4.381   1.865   1.500  0.0929 -0.3891  0.0179
 2114TIP3    H123529   4.388   1.960   1.488 -3.0576 -0.3708 -2.9591
 2114TIP3    H223530   4.294   1.852   1.536 -0.0134 -2.2328 -0.8189
 2115TIP3   OH223531   5.354   2.468   1.213 -0.5029 -0.4596  0.6438
 2115TIP3    H123532   5.288   2.427   1.270  0.4740 -0.6640  1.6755
 2115TIP3    H223533   5.380   2.547   1.261 -2.6354  1.7331 -1.4865
 2116TIP3   OH223534   2.239   4.697   0.382 -0.5484 -0.2220 -0.1716
 2116TIP3    H123535   2.191   4.683   0.300 -0.5415 -0.0239 -0.2120
 2116TIP3    H223536   2.229   4.616   0.431 -1.4394  0.0282  0.0789
 2117TIP3   OH223537   3.214   3.972   1.661  0.2269 -0.4558  0.2394
 2117TIP3    H123538   3.135   3.918   1.665 -0.2287  0.1615 -0.1725
 2117TIP3    H223539   3.278   3.925   1.715  0.4508 -2.3753 -1.5405
 2118TIP3   OH223540   6.580   4.462   0.247 -0.2527  0.0423 -0.1609
 2118TIP3    H123541   6.616   4.432   0.331  0.8700 -2.2397 -1.3493
 2118TIP3    H223542   6.521   4.392   0.220 -0.1349  0.4456 -1.5467
 2119TIP3   OH223543   3.978   0.782   6.717  0.0862  0.2397  0.3889
 2119TIP3    H123544   3.953   0.694   6.689 -1.0767  0.2873  1.2073
 2119TIP3    H223545   4.056   0.769   6.770  0.3636 -0.2112 -0.1255
 2120TIP3   OH223546   4.854   4.456   5.755  0.2062 -0.1502 -0.6277
 2120TIP3    H123547   4.775   4.433   5.705  0.4345  0.1251 -1.1258
 2120TIP3    H223548   4.925   4.450   5.691  0.4227  0.7991 -0.4961
 2121TIP3   OH223549   3.223   3.243   7.021  0.2756  0.3153  0.4840
 2121TIP3    H123550   3.277   3.166   7.004  1.2084  0.9982  0.2986
 2121TIP3    H223551   3.140   3.223   6.977 -0.1989 -1.3757  2.0234
 2122TIP3   OH223552   3.165   4.079   5.790 -0.5947  0.0739  0.2145
 2122TIP3    H123553   3.195   4.149   5.732 -3.1769  0.3974 -0.8820
 2122TIP3    H223554   3.087   4.115   5.832 -0.4612 -1.2418  1.6573
 2123TIP3   OH223555   6.438   1.847   6.666 -0.1201  0.6530 -0.6647
 2123TIP3    H123556   6.462   1.817   6.579  0.0383  1.1628 -0.8004
 2123TIP3    H223557   6.492   1.794   6.725  0.4607  0.9497 -0.9177
 2124TIP3   OH223558   4.740   5.017   0.354 -0.3548  0.5032  0.1248
 2124TIP3    H123559   4.766   4.961   0.427  2.0646 -0.1819 -1.1679
 2124TIP3    H223560   4.733   4.956   0.279 -2.0987  1.2874 -0.4040
 2125TIP3   OH223561   3.256   5.871   0.986 -0.4846  0.2411  0.5331
 2125TIP3    H123562   3.163   5.849   0.994 -0.9227  2.4305  2.3940
 2125TIP3    H223563   3.301   5.794   1.021 -1.5872 -0.7705 -0.2089
 2126TIP3   OH223564   0.770   0.983   6.880 -0.1890 -0.4117  0.6240
 2126TIP3    H123565   0.723   0.905   6.911 -0.9685  0.2877  1.2690
 2126TIP3    H223566   0.778   1.037   6.958 -0.0758  0.3605  0.0820
 2127TIP3   OH223567   1.868   5.308   6.704  0.3937  0.3672 -0.1913
 2127TIP3    H123568   1.805   5.263   6.760 -0.4612  2.5700  0.7419
 2127TIP3    H223569   1.827   5.309   6.617  0.1567 -0.1314 -0.0860
 2128TIP3   OH223570   2.076   3.190   6.202 -0.1463 -0.0129  0.1168
 2128TIP3    H123571   1.985   3.162   6.189 -0.3887  1.0397 -0.5350
 2128TIP3    H223572   2.070   3.271   6.251  0.4897 -0.3041  0.6993
 2129TIP3   OH223573   1.300   4.589   7.109 -0.4773 -0.6034  0.1638
 2129TIP3    H123574   1.262   4.502   7.100 -1.9083 -0.3989  3.0557
 2129TIP3    H223575   1.234   4.639   7.158  0.7781  1.7784 -0.4343
 2130TIP3   OH223576   6.442   0.119   7.224 -0.0857  0.0722 -0.0686
 2130TIP3    H123577   6.454   0.027   7.202  1.3021  0.3033 -0.3659
 2130TIP3    H223578   6.503   0.135   7.296  1.0233  1.1622 -1.1989
 2131TIP3   OH223579   5.791   0.740   0.727 -0.4375 -0.2930 -0.0599
 2131TIP3    H123580   5.745   0.660   0.751  1.8413 -1.4708  0.6662
 2131TIP3    H223581   5.747   0.809   0.778 -2.9976 -0.8294 -1.3639
 2132TIP3   OH223582   0.680   1.473   1.056  0.1653  0.0055  0.7046
 2132TIP3    H123583   0.749   1.529   1.020 -0.3443  0.5227  0.5183
 2132TIP3    H223584   0.688   1.483   1.151  0.1864  0.2665  0.6761
 2133TIP3   OH223585   2.418   1.478   0.904  0.6120 -0.4278  0.2970
 2133TIP3    H123586   2.485   1.531   0.861 -0.7547  2.4676  1.4474
 2133TIP3    H223587   2.370   1.540   0.958  0.0369 -3.2236  3.3063
 2134TIP3   OH223588   6.625   3.731   7.030  0.1400 -0.0503  0.2566
 2134TIP3    H123589   6.639   3.656   7.088  0.8392  0.2585  0.5010
 2134TIP3    H223590   6.693   3.793   7.055  0.1005  0.3179 -0.5217
 2135TIP3   OH223591   1.491   6.290   5.227 -0.5961 -0.2954  0.1016
 2135TIP3    H123592   1.475   6.200   5.255 -0.0621 -0.6687 -0.7755
 2135TIP3    H223593   1.572   6.286   5.176  1.7803  1.3047  3.3460
 2136TIP3   OH223594   4.920   3.397   0.311  0.2967  0.0973  0.5426
 2136TIP3    H123595   4.904   3.330   0.377  1.0905 -0.5648  0.0702
 2136TIP3    H223596   4.880   3.476   0.348 -0.6806 -0.6284  1.0872
 2137TIP3   OH223597   4.679   2.215   5.873 -0.0001 -0.4838  0.2657
 2137TIP3    H123598   4.766   2.178   5.855 -1.0045 -1.6745 -2.7415
 2137TIP3    H223599   4.692   2.309   5.867  1.2907 -0.5770  1.1001
 2138TIP3   OH223600   0.445   2.964   6.453  0.1586 -0.0205 -0.5585
 2138TIP3    H123601   0.478   2.917   6.530  0.1003  0.6834 -0.0982
 2138TIP3    H223602   0.523   3.005   6.416  0.1086  0.0354 -0.6008
 2139TIP3   OH223603   3.528   2.763   6.769 -0.1118 -1.0357 -0.2884
 2139TIP3    H123604   3.507   2.750   6.676 -2.0167 -2.9808  0.3206
 2139TIP3    H223605   3.548   2.675   6.801  1.2074 -0.2959  1.0362
 2140TIP3   OH223606   3.242   5.813   7.270 -0.5217  0.8525 -0.5952
 2140TIP3    H123607   3.307   5.881   7.289 -0.1473  0.0159  1.2746
 2140TIP3    H223608   3.281   5.760   7.200  0.8032  0.3874  0.4771
 2141TIP3   OH223609   6.305   1.590   0.337  0.4164  0.2234 -0.6809
 2141TIP3    H123610   6.363   1.666   0.347  0.5626 -0.1404  2.0174
 2141TIP3    H223611   6.364   1.517   0.320  0.4913  0.3388 -0.9144
 2142TIP3   OH223612   2.387   1.313   4.637 -0.1244 -0.2435 -0.7021
 2142TIP3    H123613   2.403   1.276   4.724  1.7018  0.4436 -0.7018
 2142TIP3    H223614   2.425   1.401   4.640 -1.3040  0.3425 -1.7678
 2143TIP3   OH223615   3.633   4.065   6.706 -0.0756 -0.2006  0.0905
 2143TIP3    H123616   3.621   4.145   6.655  0.3717  0.0603  0.3805
 2143TIP3    H223617   3.573   4.002   6.667 -2.5584  1.0669  1.6365
 2144TIP3   OH223618   2.442   0.812   1.099 -0.2206  0.3113 -0.2207
 2144TIP3    H123619   2.510   0.850   1.043  1.9596 -0.2721  1.9012
 2144TIP3    H223620   2.381   0.884   1.114  1.2926  1.6270 -0.1227
 2145TIP3   OH223621   1.858   1.431   0.764  0.7201  0.2265 -0.0724
 2145TIP3    H123622   1.885   1.345   0.730  0.5132  0.2907 -0.4035
 2145TIP3    H223623   1.791   1.412   0.829  1.1232  0.1014  0.3160
 2146TIP3   OH223624   2.510   2.454   5.821  0.8283  0.2291 -0.5152
 2146TIP3    H123625   2.568   2.388   5.782 -0.6742 -1.1639 -0.5144
 2146TIP3    H223626   2.430   2.405   5.843 -0.0234  1.8990  0.2701
 2147TIP3   OH223627   1.055   5.971   7.125  0.1125  0.0402 -0.3080
 2147TIP3    H123628   1.028   5.918   7.199  2.2836 -0.8923 -0.0902
 2147TIP3    H223629   1.063   5.909   7.052  2.6173 -0.0567 -0.0635
 2148TIP3   OH223630   2.934   3.372   5.199 -0.1035 -0.1584 -0.2301
 2148TIP3    H123631   3.025   3.345   5.187 -0.2695 -0.6941 -0.3114
 2148TIP3    H223632   2.883   3.302   5.159 -0.5695 -0.1296  0.2994
 2149TIP3   OH223633   0.535   6.635   7.212  0.2386 -0.2003  0.5266
 2149TIP3    H123634   0.454   6.643   7.161  0.2437  1.7297  0.7355
 2149TIP3    H223635   0.523   6.696   7.285  1.2263 -1.1106  1.4770
 2150TIP3   OH223636   5.531   4.841   0.473 -0.1696  0.4789  0.4704
 2150TIP3    H123637   5.435   4.848   0.479 -0.4021 -2.0148  0.5583
 2150TIP3    H223638   5.549   4.843   0.379 -0.4452 -0.3946  0.3975
 2151TIP3   OH223639   0.911   1.750   1.284 -0.3399  0.1707 -0.7834
 2151TIP3    H123640   0.934   1.839   1.257 -0.9205  0.5680 -0.0041
 2151TIP3    H223641   0.828   1.760   1.330  0.6780 -0.4556  1.3105
 2152TIP3   OH223642   6.346   3.680   6.958 -0.5303  0.5053 -0.5186
 2152TIP3    H123643   6.429   3.726   6.964  0.5458 -1.2587 -1.1912
 2152TIP3    H223644   6.282   3.748   6.937  0.3328  2.2292  2.0410
 2153TIP3   OH223645   5.469   3.608   1.904 -0.0937  0.3672 -0.2174
 2153TIP3    H123646   5.401   3.640   1.964 -1.5740 -0.7982 -1.1893
 2153TIP3    H223647   5.529   3.559   1.960 -2.0581 -1.6591  0.2538
 2154TIP3   OH223648   3.469   3.773   7.365  0.0521 -0.1128 -0.2193
 2154TIP3    H123649   3.484   3.759   7.272  2.7783  0.9788 -0.0520
 2154TIP3    H223650   3.431   3.691   7.397  0.1522 -0.9192 -2.0698
 2155TIP3   OH223651   2.457   0.605   1.805  0.4334  0.0728  0.7419
 2155TIP3    H123652   2.545   0.569   1.790  0.1906 -0.3054  0.1938
 2155TIP3    H223653   2.434   0.576   1.893  1.0470  0.5704  1.0742
 2156TIP3   OH223654   3.756   4.058   6.969 -0.1062 -0.0942  0.5516
 2156TIP3    H123655   3.742   4.091   6.881  0.6435  1.5965  1.0284
 2156TIP3    H223656   3.849   4.075   6.987 -0.8384  2.1716  2.6420
 2157TIP3   OH223657   0.062   4.491   1.158  0.4331 -0.0925  0.0234
 2157TIP3    H123658   0.102   4.470   1.074  1.5089  1.2112  0.1820
 2157TIP3    H223659  -0.017   4.540   1.136 -0.0698 -1.0147 -0.2502
 2158TIP3   OH223660   4.290   0.888   6.714 -0.4751  0.2628 -0.1242
 2158TIP3    H123661   4.338   0.893   6.797  1.4122 -1.4653 -1.0196
 2158TIP3    H223662   4.222   0.822   6.729 -1.0890  1.0038  0.4433
 2159TIP3   OH223663   0.592   2.708   2.403 -1.0206 -0.2437 -0.3476
 2159TIP3    H123664   0.588   2.789   2.455 -0.6564 -0.6661  0.3581
 2159TIP3    H223665   0.501   2.689   2.382 -1.6340 -1.8950  3.0901
 2160TIP3   OH223666   5.820   6.030   2.072 -0.3409  0.3205 -0.0500
 2160TIP3    H123667   5.873   6.029   2.152 -1.4753 -0.7026  0.7316
 2160TIP3    H223668   5.799   5.938   2.057 -0.2948  0.5227 -1.4391
 2161TIP3   OH223669   2.819   4.305   6.560 -0.3048  0.3642  0.0854
 2161TIP3    H123670   2.825   4.329   6.653 -0.5441  0.6943  0.0143
 2161TIP3    H223671   2.872   4.225   6.553  0.1114  0.6066  0.4107
 2162TIP3   OH223672   2.762   5.868   1.060  0.0245  0.5282 -0.0987
 2162TIP3    H123673   2.725   5.892   1.145 -0.7807 -0.8213 -0.0286
 2162TIP3    H223674   2.699   5.901   0.996 -0.4345 -0.2432 -0.0592
 2163TIP3   OH223675   4.360   6.314   1.522  0.0436  0.6048 -0.6014
 2163TIP3    H123676   4.276   6.346   1.554 -0.8534 -0.7721 -1.4660
 2163TIP3    H223677   4.349   6.308   1.427  0.6522 -0.7914 -0.6114
 2164TIP3   OH223678   0.788   1.198   5.482 -0.4872  0.1137  0.5231
 2164TIP3    H123679   0.724   1.183   5.553 -0.3636  0.0950  0.6302
 2164TIP3    H223680   0.755   1.143   5.410 -0.6761  0.2210  0.5261
 2165TIP3   OH223681   5.424   2.274   7.104 -0.5072  0.8394 -0.2546
 2165TIP3    H123682   5.357   2.330   7.067  0.6902  1.9810 -0.7753
 2165TIP3    H223683   5.402   2.267   7.197 -2.4138 -0.4248 -0.7481
 2166TIP3   OH223684   3.877   0.201   7.042  0.2717 -0.1032  0.1662
 2166TIP3    H123685   3.791   0.160   7.033 -0.4900  1.5640 -0.7323
 2166TIP3    H223686   3.874   0.244   7.128  0.9213 -1.5331  0.9331
 2167TIP3   OH223687   3.776   3.210   6.095 -0.4495  0.3548  0.9319
 2167TIP3    H123688   3.853   3.155   6.082 -0.7694  0.1347 -0.0994
 2167TIP3    H223689   3.709   3.173   6.038 -1.5154  0.2005  2.2341
 2168TIP3   OH223690   1.648   3.177   1.098 -0.4800  0.4802 -0.3175
 2168TIP3    H123691   1.652   3.187   1.193 -1.1478  1.6172 -0.3911
 2168TIP3    H223692   1.613   3.260   1.067 -1.8977 -0.4901 -1.4198
 2169TIP3   OH223693   1.280   2.257   7.470  0.0628 -0.8143  0.2857
 2169TIP3    H123694   1.238   2.206   7.401 -1.9641  0.2906  0.6433
 2169TIP3    H223695   1.296   2.343   7.431 -0.6888 -0.3191  1.0385
 2170TIP3   OH223696   3.795   3.183   6.773 -0.6073  0.0364 -0.1772
 2170TIP3    H123697   3.875   3.237   6.775 -0.0388 -0.8100  1.4786
 2170TIP3    H223698   3.817   3.111   6.715 -0.1674 -0.1637  0.2295
 2171TIP3   OH223699   2.666   2.628   7.282 -0.6887 -0.1271 -0.1732
 2171TIP3    H123700   2.704   2.540   7.283  0.0269  0.1789  0.9939
 2171TIP3    H223701   2.736   2.686   7.310 -1.3013  0.7623 -0.4256
 2172TIP3   OH223702   2.062   4.124   6.339 -0.4241 -0.1722  0.6324
 2172TIP3    H123703   1.973   4.088   6.342 -0.2370 -0.7004  0.0620
 2172TIP3    H223704   2.062   4.181   6.263 -0.0516 -0.7956  0.1581
 2173TIP3   OH223705   3.622   3.843   1.004 -0.5851  0.1291  0.0188
 2173TIP3    H123706   3.624   3.803   1.091  0.8659  1.4700  0.6490
 2173TIP3    H223707   3.680   3.788   0.951 -0.7185 -0.1346  0.1424
 2174TIP3   OH223708   1.603   3.585   0.286 -0.2943 -0.2673  0.4986
 2174TIP3    H123709   1.676   3.567   0.345 -0.1403  0.1149  0.4288
 2174TIP3    H223710   1.625   3.539   0.205  1.2495  2.0644 -0.5093
 2175TIP3   OH223711   2.316   6.610   7.609  0.2711  0.6097 -0.1797
 2175TIP3    H123712   2.288   6.526   7.646 -0.2628 -0.3217 -2.5105
 2175TIP3    H223713   2.238   6.665   7.611 -0.4764 -0.2871 -2.0754
 2176TIP3   OH223714   1.574   2.328   2.058 -0.0663 -0.3096  0.2202
 2176TIP3    H123715   1.551   2.371   2.140 -0.7496  0.9014 -0.5740
 2176TIP3    H223716   1.491   2.305   2.018  0.1352  1.1114 -1.1309
 2177TIP3   OH223717   3.164   3.368   6.520 -0.0659  0.4114  0.6151
 2177TIP3    H123718   3.241   3.379   6.464 -1.6209  1.5561 -1.4397
 2177TIP3    H223719   3.183   3.291   6.573  0.8317 -1.9332 -2.7973
 2178TIP3   OH223720   2.975   1.716   0.926 -0.6379  0.1261 -0.4095
 2178TIP3    H123721   3.046   1.780   0.937  0.0093 -0.4929 -0.8610
 2178TIP3    H223722   3.014   1.633   0.953 -1.3350 -0.1560 -0.2465
 2179TIP3   OH223723   2.871   2.384   6.410  0.2752  0.5275 -0.2939
 2179TIP3    H123724   2.830   2.416   6.490 -2.2247  0.6339 -1.5175
 2179TIP3    H223725   2.805   2.327   6.371  2.7888 -2.4553 -0.5488
 2180TIP3   OH223726   4.686   0.825   0.995 -0.0088 -0.0652 -0.3301
 2180TIP3    H123727   4.644   0.882   1.059 -1.0750  0.9690 -1.8820
 2180TIP3    H223728   4.751   0.776   1.045 -2.4497 -1.0904  2.0202
 2181TIP3   OH223729   0.608   2.288   1.585  0.2627  0.1804  0.1465
 2181TIP3    H123730   0.588   2.293   1.491 -0.4417  0.8816  0.3232
 2181TIP3    H223731   0.617   2.379   1.613 -0.5035  0.0279  0.9520
 2182TIP3   OH223732   3.304   0.697   0.189  0.2065  0.3754  0.1701
 2182TIP3    H123733   3.294   0.720   0.097  1.0369 -1.2768 -0.3792
 2182TIP3    H223734   3.304   0.781   0.235 -1.8445  1.1676 -1.1421
 2183TIP3   OH223735   5.363   6.366   6.871  0.5384 -0.3397 -0.0908
 2183TIP3    H123736   5.325   6.297   6.816 -1.4312  0.6748 -0.1068
 2183TIP3    H223737   5.322   6.447   6.839  1.7758  0.6693  0.8017
 2184TIP3   OH223738   0.786   2.060   1.401  0.4385  0.0740  0.2716
 2184TIP3    H123739   0.879   2.080   1.408  0.5328  1.2518 -2.8419
 2184TIP3    H223740   0.745   2.113   1.470  1.8215  2.0749 -0.3503
 2185TIP3   OH223741   1.570   6.235   6.058  0.4374  0.0913 -0.4365
 2185TIP3    H123742   1.523   6.237   6.141 -0.5270 -1.2600 -0.9057
 2185TIP3    H223743   1.579   6.327   6.032  0.4708  0.5073  0.9900
 2186TIP3   OH223744   5.185   4.898   1.372  0.4314 -0.0851 -0.0435
 2186TIP3    H123745   5.207   4.807   1.389  0.4878 -0.2824 -1.0877
 2186TIP3    H223746   5.112   4.917   1.430  0.9230 -0.5496  0.7469
 2187TIP3   OH223747   5.112   4.308   2.251 -0.1097  0.3217 -0.2151
 2187TIP3    H123748   5.042   4.333   2.192  1.8266  0.7345 -2.4963
 2187TIP3    H223749   5.144   4.390   2.287  0.9588  0.4297 -1.3533
 2188TIP3   OH223750   0.071   3.001   0.793  0.0325  0.2866  0.2218
 2188TIP3    H123751   0.147   3.039   0.748  1.7794 -1.6199  1.4009
 2188TIP3    H223752   0.041   3.071   0.851  0.4652  1.2866 -0.7215
 2189TIP3   OH223753   1.868   4.410   2.311 -0.0926  0.1522  0.0049
 2189TIP3    H123754   1.825   4.454   2.238 -2.4665  1.3490  1.9678
 2189TIP3    H223755   1.953   4.453   2.318  1.4078 -1.7979 -3.5652
 2190TIP3   OH223756   3.240   1.942   5.845 -0.1974 -0.2490 -0.0535
 2190TIP3    H123757   3.257   1.872   5.781  2.1357 -1.0784  1.3579
 2190TIP3    H223758   3.176   1.904   5.905 -1.8731  0.2860 -1.4263
 2191TIP3   OH223759   2.273   1.213   1.789 -0.2823  0.2458  0.2906
 2191TIP3    H123760   2.200   1.258   1.831 -0.1519 -0.1770  0.9955
 2191TIP3    H223761   2.340   1.208   1.858  0.4965  0.8207 -0.4020
 2192TIP3   OH223762   4.776   5.419   0.842 -0.4064 -0.3884  0.0818
 2192TIP3    H123763   4.754   5.510   0.856 -0.8074 -0.6827  1.4369
 2192TIP3    H223764   4.695   5.378   0.811 -0.2044 -0.2885 -0.6125
 2193TIP3   OH223765   0.549   1.418   6.857  0.2318  0.1817  0.0559
 2193TIP3    H123766   0.459   1.449   6.871 -0.0024 -0.6526  0.4584
 2193TIP3    H223767   0.568   1.441   6.766 -0.8092 -0.6419 -0.3991
 2194TIP3   OH223768   3.815   2.776   1.144  0.2768  0.0606 -0.3617
 2194TIP3    H123769   3.897   2.817   1.172  0.5052 -0.9840  0.6166
 2194TIP3    H223770   3.761   2.848   1.111  1.1649  0.9253  0.0384
 2195TIP3   OH223771   2.910   2.240   2.172 -0.1121  0.4881  0.7068
 2195TIP3    H123772   2.965   2.181   2.224  0.5537 -0.0589 -0.5682
 2195TIP3    H223773   2.970   2.309   2.143 -0.6206  1.1350  1.1794
 2196TIP3   OH223774   4.261   5.298   6.642  0.0856  0.1328  0.3464
 2196TIP3    H123775   4.284   5.206   6.648  2.0212  0.5245 -0.1439
 2196TIP3    H223776   4.268   5.318   6.548  0.3109  0.9076  0.5187
 2197TIP3   OH223777   2.446   2.735   7.184  0.0653 -0.0348 -0.0912
 2197TIP3    H123778   2.442   2.706   7.093 -2.0416 -2.7964  0.7411
 2197TIP3    H223779   2.523   2.692   7.220  0.3566  0.2767 -0.3473
 2198TIP3   OH223780   4.028   6.003   6.149 -0.3303  0.2000 -0.1788
 2198TIP3    H123781   4.088   5.979   6.220 -0.1720  0.6960 -0.1457
 2198TIP3    H223782   3.983   6.081   6.181 -0.0579  0.5861 -0.7394
 2199TIP3   OH223783   1.070   2.256   0.602  0.2884 -0.1705  0.3951
 2199TIP3    H123784   1.081   2.162   0.614 -1.2440 -0.1368  2.6401
 2199TIP3    H223785   1.004   2.264   0.533  2.1004 -0.6061 -1.5141
 2200TIP3   OH223786   2.868   3.117   7.722 -0.1449 -0.1930 -0.4914
 2200TIP3    H123787   2.853   3.202   7.681 -0.8648 -0.6208 -1.1223
 2200TIP3    H223788   2.883   3.138   7.814 -0.6753  0.5944 -0.5709
 2201TIP3   OH223789   5.891   1.511   0.874 -0.7247  0.1525 -0.2870
 2201TIP3    H123790   5.896   1.416   0.859  1.7355 -0.1107  1.6056
 2201TIP3    H223791   5.841   1.521   0.954 -0.0192  0.3421  0.1417
 2202TIP3   OH223792   2.817   3.003   6.509  0.3436 -0.2295  0.7574
 2202TIP3    H123793   2.899   3.035   6.472 -0.7552  0.1959 -1.4522
 2202TIP3    H223794   2.833   2.910   6.526  0.9073 -0.4658 -0.9095
 2203TIP3   OH223795   3.798   0.913   6.893  0.0582 -0.1546  0.1681
 2203TIP3    H123796   3.727   0.854   6.919  1.5433 -1.2088  2.1203
 2203TIP3    H223797   3.847   0.865   6.827  0.7995 -0.8145  1.1749
 2204TIP3   OH223798   1.586   3.999   6.039 -0.3159  0.2464  0.3449
 2204TIP3    H123799   1.669   3.976   5.998 -1.0084 -2.1702  0.1217
 2204TIP3    H223800   1.604   3.996   6.133  0.0838  0.7619  0.2880
 2205TIP3   OH223801   2.702   5.537   1.132 -0.0382 -0.7431  0.2116
 2205TIP3    H123802   2.625   5.535   1.189  0.4154 -1.9314  0.8024
 2205TIP3    H223803   2.694   5.620   1.084 -2.2559 -1.3208 -0.5221
 2206TIP3   OH223804   2.432   4.322   0.885 -0.0499  0.1595 -0.1875
 2206TIP3    H123805   2.480   4.334   0.967 -0.2194 -1.8596  0.2477
 2206TIP3    H223806   2.414   4.228   0.881 -1.9706  0.5300 -1.4672
 2207TIP3   OH223807   0.548   0.982   0.404  0.1399  0.1325 -0.0363
 2207TIP3    H123808   0.588   1.007   0.321  0.1813  1.1760  0.2833
 2207TIP3    H223809   0.622   0.955   0.459  0.1400 -0.3012 -0.2481
 2208TIP3   OH223810   1.433   1.757   6.751 -0.5762 -0.5379 -0.3527
 2208TIP3    H123811   1.358   1.728   6.802 -0.9344  0.0383 -0.5309
 2208TIP3    H223812   1.445   1.849   6.776  1.4260 -1.1811  1.2703
 2209TIP3   OH223813   5.849   6.271   2.205 -0.1189  1.0785  0.1320
 2209TIP3    H123814   5.826   6.363   2.188 -0.5043  1.0051  0.2593
 2209TIP3    H223815   5.797   6.221   2.142 -0.8704  0.8671  0.9062
 2210TIP3   OH223816   4.724   2.918   6.996 -0.2938  0.3055 -0.2015
 2210TIP3    H123817   4.672   2.846   7.033 -0.5088 -0.2364 -1.4980
 2210TIP3    H223818   4.791   2.936   7.061  0.5658 -1.9551 -0.3671
 2211TIP3   OH223819   1.875   6.612   6.872  0.5810  0.3135 -0.3092
 2211TIP3    H123820   1.853   6.583   6.961 -1.1369  1.0178 -0.4576
 2211TIP3    H223821   1.966   6.639   6.877  0.7807 -0.5199  1.0168
 2212TIP3   OH223822   5.038   2.810   6.107 -0.1940  0.2012 -0.3255
 2212TIP3    H123823   4.976   2.777   6.043 -0.6482  0.6453 -0.1197
 2212TIP3    H223824   5.000   2.892   6.138 -0.7465 -0.7092  1.5957
 2213TIP3   OH223825   0.360   0.508   1.149  0.4029 -0.1481 -0.1598
 2213TIP3    H123826   0.298   0.580   1.138 -0.5199 -1.1121 -1.7810
 2213TIP3    H223827   0.440   0.549   1.182 -0.6583  1.3255  0.6749
 2214TIP3   OH223828   1.149   0.060   2.485 -0.3694 -0.0117  0.0516
 2214TIP3    H123829   1.092   0.119   2.534  0.7522  0.1549  1.2089
 2214TIP3    H223830   1.102  -0.023   2.482 -1.4536  0.6027 -0.5872
 2215TIP3   OH223831   2.589   6.176   0.573  0.4985 -0.1090  0.3254
 2215TIP3    H123832   2.592   6.174   0.477 -0.8396  1.4815  0.1884
 2215TIP3    H223833   2.627   6.261   0.596 -1.7632  0.8046  0.9670
 2216TIP3   OH223834   5.023   5.897   0.145 -0.7220 -0.2007  0.0788
 2216TIP3    H123835   5.033   5.866   0.056 -2.1953 -1.7152  0.3967
 2216TIP3    H223836   4.943   5.949   0.144 -3.1782 -3.6224  1.2495
 2217TIP3   OH223837   5.615   1.238   5.970 -0.4224  1.0790  0.5305
 2217TIP3    H123838   5.563   1.164   6.000 -0.2874  0.8259  0.1515
 2217TIP3    H223839   5.699   1.199   5.944  0.0844  1.5186  1.4415
 2218TIP3   OH223840   3.130   6.369   7.039  0.1694  0.1106 -0.2785
 2218TIP3    H123841   3.107   6.280   7.013  2.0629 -0.5648  0.2298
 2218TIP3    H223842   3.105   6.423   6.965 -1.2701 -0.7841 -0.4883
 2219TIP3   OH223843   5.286   1.692   0.080 -0.1295 -0.1466 -0.8294
 2219TIP3    H123844   5.326   1.656   0.001 -1.7211  1.8938 -2.6978
 2219TIP3    H223845   5.192   1.676   0.068 -0.4917  1.1193  0.1651
 2220TIP3   OH223846   1.764   4.675   1.089 -1.0749 -0.2685  0.3362
 2220TIP3    H123847   1.751   4.770   1.096 -0.2299  0.1628 -2.6447
 2220TIP3    H223848   1.703   4.648   1.020 -1.6289 -2.0234  1.4511
 2221TIP3   OH223849   6.581   5.583   1.080  0.1023  1.1833 -0.1792
 2221TIP3    H123850   6.631   5.538   1.012  1.1064  2.3277 -0.2220
 2221TIP3    H223851   6.620   5.553   1.162 -0.3004  0.7515 -0.1389
 2222TIP3   OH223852   6.171   4.210   1.215 -0.3428  0.2177 -0.2139
 2222TIP3    H123853   6.208   4.286   1.261  3.1702 -1.3449 -0.1671
 2222TIP3    H223854   6.176   4.139   1.278 -1.5678 -0.5714 -0.9726
 2223TIP3   OH223855   1.571   2.553   3.190  0.5268  0.4110  0.8509
 2223TIP3    H123856   1.492   2.501   3.200  1.8609 -1.2413  4.4814
 2223TIP3    H223857   1.641   2.489   3.176  1.8037  1.3964  2.3239
 2224TIP3   OH223858   1.264   5.000   1.290  0.2534 -0.0572  0.5461
 2224TIP3    H123859   1.201   4.947   1.240  0.2879 -0.4961  0.9548
 2224TIP3    H223860   1.215   5.027   1.367 -0.5185  2.4972 -0.7448
 2225TIP3   OH223861   0.907   5.626   5.888  0.6876 -0.2429 -0.3593
 2225TIP3    H123862   0.899   5.551   5.947  1.0602  0.4638  0.6284
 2225TIP3    H223863   0.998   5.623   5.858  1.1582  0.6540  0.8920
 2226TIP3   OH223864   0.009   3.502   0.313 -0.1414  0.7613 -0.3733
 2226TIP3    H123865  -0.081   3.527   0.333 -0.0850  0.2457  0.6005
 2226TIP3    H223866   0.016   3.510   0.218 -1.2209  0.7595 -0.4616
 2227TIP3   OH223867   0.867   4.743   0.965 -0.5100 -0.7575 -0.9906
 2227TIP3    H123868   0.883   4.764   0.873 -0.9930  1.2562 -0.6624
 2227TIP3    H223869   0.887   4.649   0.972  0.2276 -0.7993 -2.9709
 2228TIP3   OH223870   3.866   2.029   2.153  0.4167 -0.7133 -0.4066
 2228TIP3    H123871   3.938   1.975   2.122  2.6084  0.9404  1.4624
 2228TIP3    H223872   3.900   2.119   2.152 -0.6542 -0.1036  2.8003
 2229TIP3   OH223873   5.829   5.035   0.798  0.2918  0.3584  0.2257
 2229TIP3    H123874   5.859   4.984   0.873  1.0409  2.7105  1.6260
 2229TIP3    H223875   5.902   5.033   0.736 -0.1929 -1.2814 -0.3705
 2230TIP3   OH223876   0.259   5.711   0.370  0.1761 -0.3518 -0.2381
 2230TIP3    H123877   0.290   5.737   0.283 -1.9909  1.3822 -0.5775
 2230TIP3    H223878   0.332   5.733   0.428 -0.0898  3.2373 -1.0423
 2231TIP3   OH223879   1.339   5.457   6.135 -0.0340 -0.4028 -0.0904
 2231TIP3    H123880   1.431   5.449   6.161 -0.3141  0.3857  1.2228
 2231TIP3    H223881   1.342   5.496   6.048  0.8967  2.8939  1.2355
 2232TIP3   OH223882   1.578   0.297   0.267 -0.1560 -0.1699  0.6982
 2232TIP3    H123883   1.663   0.265   0.234 -0.2702 -0.3760  0.6008
 2232TIP3    H223884   1.589   0.392   0.272  0.7508 -0.3190  2.5550
 2233TIP3   OH223885   0.648   6.243   0.976  0.1208 -0.3239 -0.0769
 2233TIP3    H123886   0.694   6.236   1.059 -1.1812  1.3734  0.8471
 2233TIP3    H223887   0.556   6.253   1.000 -0.3266 -0.0826 -1.7322
 2234TIP3   OH223888   6.314   0.842   7.171  0.0408  0.2348  0.1143
 2234TIP3    H123889   6.254   0.879   7.107  1.5837  0.6226 -1.1857
 2234TIP3    H223890   6.399   0.840   7.126  1.5175  1.7969  2.5726
 2235TIP3   OH223891   2.997   5.203   1.561  0.6091  0.3845 -0.1673
 2235TIP3    H123892   3.027   5.121   1.602  0.0972  0.8304  1.1498
 2235TIP3    H223893   2.911   5.218   1.599  0.6979  1.5312 -0.4056
 2236TIP3   OH223894   5.191   0.233   1.077  0.7615  0.9323  0.4583
 2236TIP3    H123895   5.181   0.322   1.045 -0.0382  0.7772  0.2597
 2236TIP3    H223896   5.281   0.230   1.112  1.4095  1.2997 -1.1004
 2237TIP3   OH223897   1.528   0.955   0.554 -0.1713 -0.1645 -0.9306
 2237TIP3    H123898   1.486   1.038   0.577  0.2617 -0.0628 -0.4853
 2237TIP3    H223899   1.462   0.908   0.503 -0.8699 -0.0613 -0.1364
 2238TIP3   OH223900   1.266   4.023   0.260 -0.2003 -0.3480 -0.2941
 2238TIP3    H123901   1.205   4.011   0.332 -1.3251 -1.0208 -1.3172
 2238TIP3    H223902   1.309   4.107   0.278 -2.0171  0.5388  0.0499
 2239TIP3   OH223903   1.377   5.667   7.309 -0.1124  0.0981  0.3695
 2239TIP3    H123904   1.365   5.635   7.220  2.0611 -0.2065  0.1155
 2239TIP3    H223905   1.373   5.588   7.363  1.3220 -0.1206  0.1930
 2240TIP3   OH223906   2.254   1.295   0.770 -0.7085 -0.4235  0.1341
 2240TIP3    H123907   2.318   1.289   0.699  0.7896 -0.6725  1.4248
 2240TIP3    H223908   2.287   1.366   0.826 -2.5893  0.6720 -0.0856
 2241TIP3   OH223909   1.075   0.192   1.097 -0.1527 -0.5814 -0.0058
 2241TIP3    H123910   1.095   0.116   1.043 -1.0304 -0.7868 -0.0587
 2241TIP3    H223911   0.988   0.219   1.068  0.9241  1.6740 -1.4208
 2242TIP3   OH223912   3.640   5.019   6.768 -0.1480  0.2342 -0.1859
 2242TIP3    H123913   3.687   5.101   6.751 -0.1441  0.0980 -0.8516
 2242TIP3    H223914   3.622   4.983   6.681  2.6264 -2.0756  0.0267
 2243TIP3   OH223915   3.944   2.747   1.664  0.4356  0.0227 -0.0662
 2243TIP3    H123916   3.956   2.800   1.743  0.0737  0.0126  0.0001
 2243TIP3    H223917   3.864   2.697   1.682  1.0990 -0.9945  0.1251
 2244TIP3   OH223918   1.990   5.830   6.695 -0.2474  0.1586 -0.0002
 2244TIP3    H123919   2.070   5.847   6.745 -0.1940 -0.3183  0.0788
 2244TIP3    H223920   2.018   5.771   6.625  0.0007  2.0184 -1.5354
 2245TIP3   OH223921   2.966   0.699   6.365  0.7366  0.5677 -0.5365
 2245TIP3    H123922   2.938   0.683   6.275  0.3453 -0.4819 -0.2508
 2245TIP3    H223923   2.963   0.794   6.375  1.2040  0.7308 -1.7562
 2246TIP3   OH223924   2.497   3.265   6.045  0.2924  0.0557  0.4402
 2246TIP3    H123925   2.443   3.188   6.028  0.6236 -0.9182  3.2488
 2246TIP3    H223926   2.572   3.231   6.094  0.6490  2.1234  1.4297
 2247TIP3   OH223927   3.299   2.515   6.518 -0.6947 -0.0526 -0.0239
 2247TIP3    H123928   3.390   2.508   6.488 -0.5236 -1.8966  0.7684
 2247TIP3    H223929   3.247   2.508   6.439 -0.1631  1.6492 -0.5638
 2248TIP3   OH223930   1.240   6.307   2.371  0.3933 -0.3612  0.1769
 2248TIP3    H123931   1.314   6.367   2.368  0.3235 -0.1199  2.0974
 2248TIP3    H223932   1.168   6.358   2.407 -1.4382  0.0247 -3.5566
 2249TIP3   OH223933   5.906   2.631   0.658 -0.0508  0.0732  0.1882
 2249TIP3    H123934   5.880   2.697   0.594  2.1080  1.1405  0.3214
 2249TIP3    H223935   5.970   2.577   0.611  0.1536 -0.2930  0.8771
 2250TIP3   OH223936   0.464   0.918   7.198 -0.2317 -0.4951  0.2388
 2250TIP3    H123937   0.501   0.841   7.156 -0.5975 -0.4441 -0.1806
 2250TIP3    H223938   0.404   0.883   7.264 -0.3709 -0.5743  0.0724
 2251TIP3   OH223939   6.304   5.414   7.591  0.1163 -0.6300  0.3127
 2251TIP3    H123940   6.362   5.431   7.516  1.7900 -0.8184  1.5116
 2251TIP3    H223941   6.317   5.489   7.649 -0.8424 -0.6933  0.6308
 2252TIP3   OH223942   5.855   3.757   2.006 -0.2025 -0.4332 -0.2358
 2252TIP3    H123943   5.850   3.669   2.043 -0.1318  0.0786  1.0290
 2252TIP3    H223944   5.942   3.762   1.966 -0.1794 -0.9096 -0.2454
 2253TIP3   OH223945   1.940   0.506   2.248  0.3474  0.1522 -0.5274
 2253TIP3    H123946   2.030   0.474   2.255  0.5727  0.4785 -1.7470
 2253TIP3    H223947   1.937   0.582   2.306  1.3938  1.2257 -1.8086
 2254TIP3   OH223948   5.215   2.564   6.575  0.4350  0.6199  0.0649
 2254TIP3    H123949   5.170   2.632   6.625  2.2273  1.5798  0.4731
 2254TIP3    H223950   5.307   2.575   6.598  0.8497 -1.6044 -0.3096
 2255TIP3   OH223951   6.610   6.634   0.089 -0.1956  0.3841  0.0171
 2255TIP3    H123952   6.534   6.580   0.112  2.2766 -2.6121  1.9721
 2255TIP3    H223953   6.663   6.578   0.031  1.7014  1.3285  0.7430
 2256TIP3   OH223954   2.450   3.465   5.418  0.1591 -0.4337  0.1352
 2256TIP3    H123955   2.535   3.432   5.389 -0.4716  0.2437 -2.8498
 2256TIP3    H223956   2.470   3.521   5.493  2.0271 -1.9859  0.8880
 2257TIP3   OH223957   0.341   3.911   7.401 -0.8029 -0.4797  0.1972
 2257TIP3    H123958   0.414   3.941   7.456 -0.1718 -0.2829 -0.7083
 2257TIP3    H223959   0.263   3.944   7.444 -0.1764  2.0705 -0.4586
 2258TIP3   OH223960   1.503   1.708   4.611  0.1024  0.1768  0.6331
 2258TIP3    H123961   1.477   1.786   4.661 -0.6357 -0.0796  0.6627
 2258TIP3    H223962   1.483   1.635   4.668 -0.7549 -0.1204 -0.0257
 2259TIP3   OH223963   4.186   4.697   7.369  0.5916 -0.1466 -0.6181
 2259TIP3    H123964   4.111   4.643   7.395  1.1877  0.0792  1.8545
 2259TIP3    H223965   4.149   4.763   7.311 -1.8932  1.8182  2.8027
 2260TIP3   OH223966   3.784   5.831   7.510 -0.4378 -0.0240 -0.5751
 2260TIP3    H123967   3.800   5.875   7.593  0.9853  0.9391 -1.3233
 2260TIP3    H223968   3.843   5.755   7.512  1.2878  1.2207 -1.5836
 2261TIP3   OH223969   4.137   6.488   1.562  0.9523  0.2791 -0.5549
 2261TIP3    H123970   4.197   6.533   1.504  0.8202  0.5317 -0.4981
 2261TIP3    H223971   4.122   6.550   1.634  0.8308  0.1151 -0.4373
 2262TIP3   OH223972   4.094   3.876   5.652 -0.0608  0.5069 -0.2826
 2262TIP3    H123973   4.015   3.864   5.703  0.8831  2.3674  1.7761
 2262TIP3    H223974   4.063   3.896   5.564 -1.7850 -1.0335 -0.0767
 2263TIP3   OH223975   1.807   2.681   2.018  0.0355 -1.0483 -0.5223
 2263TIP3    H123976   1.864   2.722   1.953  2.5740 -2.3510  0.7197
 2263TIP3    H223977   1.790   2.593   1.984 -0.1479 -1.1061 -0.2867
 2264TIP3   OH223978   5.696   5.766   1.039  0.2660 -0.0012 -0.3964
 2264TIP3    H123979   5.717   5.755   1.132  0.5840  4.2352  0.2664
 2264TIP3    H223980   5.600   5.769   1.037  0.2618  0.1877 -0.1055
 2265TIP3   OH223981   5.154   0.317   0.773  0.3905 -0.2982  0.3408
 2265TIP3    H123982   5.179   0.401   0.810 -0.6694  1.1862 -2.1091
 2265TIP3    H223983   5.062   0.306   0.797  0.0333  0.1103 -0.7905
 2266TIP3   OH223984   2.155   1.511   7.268 -0.3202  0.4160  0.0340
 2266TIP3    H123985   2.114   1.569   7.332 -1.3540 -1.5662  1.2813
 2266TIP3    H223986   2.088   1.496   7.202 -0.3382  0.0564  0.1289
 2267TIP3   OH223987   6.297   3.058   7.658  0.0632  0.2854 -0.4101
 2267TIP3    H123988   6.312   3.075   7.750  0.4558 -1.0368 -0.2176
 2267TIP3    H223989   6.250   2.974   7.656 -1.7134  1.2424 -1.3165
 2268TIP3   OH223990   5.545   3.491   1.184 -0.4916  0.0386 -0.1361
 2268TIP3    H123991   5.603   3.430   1.137 -0.7108 -0.1774 -0.1248
 2268TIP3    H223992   5.589   3.506   1.267 -1.5612 -1.9503  0.8663
 2269TIP3   OH223993   4.344   4.166   1.180 -0.2500 -0.1806  0.3578
 2269TIP3    H123994   4.268   4.214   1.213 -1.0578 -0.7431 -0.6141
 2269TIP3    H223995   4.362   4.206   1.094 -0.2345 -0.8724  0.0345
 2270TIP3   OH223996   5.667   6.347   6.252  0.1137  0.0358  0.1827
 2270TIP3    H123997   5.741   6.331   6.193  0.2682  0.7330  0.1876
 2270TIP3    H223998   5.598   6.380   6.195  0.2801  0.7625  0.4023
 2271TIP3   OH223999   1.273   6.564   6.920  0.4123  0.2049 -0.6168
 2271TIP3    H124000   1.262   6.553   7.015 -0.1024 -0.4004 -0.7416
 2271TIP3    H224001   1.323   6.488   6.893 -0.6426 -0.3489 -1.0425
 2272TIP3   OH224002   1.267   4.360   0.399 -0.1596 -0.0804 -0.9910
 2272TIP3    H124003   1.339   4.311   0.359 -2.0604 -1.1408 -3.3356
 2272TIP3    H224004   1.300   4.449   0.408  2.4035 -1.1001  0.7096
 2273TIP3   OH224005   6.140   4.463   1.746 -0.1698  0.1624 -0.1426
 2273TIP3    H124006   6.230   4.456   1.778  0.6040 -0.7474 -2.3163
 2273TIP3    H224007   6.088   4.419   1.813  1.0062  0.5842  1.1006
 2274TIP3   OH224008   0.691   5.837   7.273 -0.0730 -0.1266  0.1045
 2274TIP3    H124009   0.697   5.822   7.179  0.4235 -2.1215  0.4071
 2274TIP3    H224010   0.599   5.862   7.287 -0.2282 -0.1182 -0.8519
 2275TIP3   OH224011   5.624   6.345   5.887 -0.2373  0.0610  0.0628
 2275TIP3    H124012   5.664   6.429   5.864  0.7869 -1.0827 -2.7016
 2275TIP3    H224013   5.697   6.294   5.923 -0.6525 -0.0102  0.8289
 2276TIP3   OH224014   4.166   4.197   6.548  0.0184 -0.2289 -0.0992
 2276TIP3    H124015   4.160   4.260   6.476  0.1153  0.5543  0.5611
 2276TIP3    H224016   4.076   4.166   6.560 -0.1533  0.2820 -0.0089
 2277TIP3   OH224017   2.408   4.950   7.023 -0.2750  0.5364 -0.0322
 2277TIP3    H124018   2.437   4.898   6.948  0.1637  0.2877  0.3055
 2277TIP3    H224019   2.324   4.987   6.995 -0.5130 -0.2114 -0.3485
 2278TIP3   OH224020   5.478   0.923   0.208 -0.3192 -0.4660  0.1325
 2278TIP3    H124021   5.385   0.934   0.226 -0.5987  0.0887 -1.4733
 2278TIP3    H224022   5.499   0.835   0.238 -1.1350 -0.2632  1.3411
 2279TIP3   OH224023   1.932   0.183   7.234  0.0783  0.4987 -0.4526
 2279TIP3    H124024   2.019   0.188   7.274 -0.3821  0.9299  0.5265
 2279TIP3    H224025   1.943   0.227   7.149  1.2902 -1.2361 -1.2649
 2280TIP3   OH224026   4.283   4.414   7.082  0.0877 -0.6444  0.0883
 2280TIP3    H124027   4.318   4.352   7.145 -0.6053 -1.3084 -0.1745
 2280TIP3    H224028   4.353   4.423   7.016  0.3017 -0.9185  0.2789
 2281TIP3   OH224029   0.022   2.242   0.157  0.4303 -0.2795 -0.0489
 2281TIP3    H124030   0.071   2.162   0.176  0.4111 -0.1899  0.4001
 2281TIP3    H224031   0.088   2.310   0.150  0.4694 -0.3736 -0.6937
 2282TIP3   OH224032   6.097   2.675   7.139 -0.0248 -0.0939  0.1918
 2282TIP3    H124033   6.122   2.728   7.215 -2.0102 -0.3956  1.1120
 2282TIP3    H224034   6.059   2.596   7.176 -0.4645 -0.5276 -1.1357
 2283TIP3   OH224035   6.163   5.298   0.386 -0.3978 -0.0597 -0.6657
 2283TIP3    H124036   6.149   5.355   0.310 -3.4380  1.0395  0.5690
 2283TIP3    H224037   6.236   5.339   0.433  2.0562 -1.1582 -3.1724
 2284TIP3   OH224038   1.292   4.052   7.391  0.1207  0.3659 -0.1833
 2284TIP3    H124039   1.347   4.131   7.392  3.1346 -1.5713 -1.1484
 2284TIP3    H224040   1.246   4.057   7.307  1.4343  0.3909 -0.9194
 2285TIP3   OH224041   4.697   4.645   6.743 -0.4664  0.0664  0.3087
 2285TIP3    H124042   4.719   4.605   6.659 -0.9598  3.3182 -1.5193
 2285TIP3    H224043   4.780   4.646   6.792  0.8290  1.6127 -1.7674
 2286TIP3   OH224044   5.295   2.615   7.601  0.3472  0.1946  0.2289
 2286TIP3    H124045   5.311   2.613   7.695  0.3166 -0.6667  0.2246
 2286TIP3    H224046   5.331   2.532   7.569  1.9769  1.2181 -0.7800
 2287TIP3   OH224047   4.362   6.297   1.249  0.4642  0.6956  0.3310
 2287TIP3    H124048   4.408   6.381   1.251 -1.6994  1.9933 -0.3393
 2287TIP3    H224049   4.311   6.300   1.168 -1.1471 -0.4072  1.2370
 2288TIP3   OH224050   1.550   2.930   0.515 -0.2777  0.1263  0.4367
 2288TIP3    H124051   1.638   2.893   0.506 -0.0235  0.3233  1.8410
 2288TIP3    H224052   1.559   2.995   0.585 -1.3517  0.7767 -0.0060
 2289TIP3   OH224053   4.540   4.247   6.606 -0.2077 -1.0023 -0.2571
 2289TIP3    H124054   4.549   4.197   6.687  1.4116 -0.5194 -0.0993
 2289TIP3    H224055   4.521   4.181   6.539  2.8412 -2.0746 -0.2328
 2290TIP3   OH224056   4.419   1.529   2.198  0.1132  0.7319 -0.2076
 2290TIP3    H124057   4.342   1.586   2.199  0.0747  0.7570 -2.1158
 2290TIP3    H224058   4.390   1.449   2.243 -0.7150  1.0960 -0.0657
 2291TIP3   OH224059   5.034   5.694   0.359  0.1617  0.2391  0.2962
 2291TIP3    H124060   5.023   5.745   0.278  1.0307  1.8448  1.1269
 2291TIP3    H224061   4.988   5.745   0.425 -0.6937 -1.1524  0.8140
 2292TIP3   OH224062   3.590   5.546   0.258 -0.6247 -0.0020 -0.0054
 2292TIP3    H124063   3.667   5.493   0.276  0.9587  1.8727 -0.8682
 2292TIP3    H224064   3.543   5.549   0.342  0.6781 -0.5014  0.7789
 2293TIP3   OH224065   6.334   3.086   1.031 -0.0439  0.4865 -0.3996
 2293TIP3    H124066   6.275   3.161   1.024 -1.0761 -0.1934  0.6437
 2293TIP3    H224067   6.299   3.022   0.970 -0.0022  0.3272 -0.2576
 2294TIP3   OH224068   3.006   3.203   2.315  0.1525 -0.4784  0.3421
 2294TIP3    H124069   2.941   3.171   2.377 -0.3749  0.2352  0.1836
 2294TIP3    H224070   2.954   3.228   2.238  0.1101  3.1070  1.3326
 2295TIP3   OH224071   2.603   5.227   6.660 -0.0367  0.0290  0.4108
 2295TIP3    H124072   2.510   5.210   6.650 -0.1119  1.3998 -2.4200
 2295TIP3    H224073   2.608   5.316   6.696  0.2628 -0.7992  2.5657
 2296TIP3   OH224074   1.167   5.211   0.629  0.6556  0.2532 -0.1433
 2296TIP3    H124075   1.083   5.256   0.623  0.8627  0.4940 -2.7117
 2296TIP3    H224076   1.146   5.125   0.665 -0.4139  0.9002  0.8364
 2297TIP3   OH224077   4.283   0.037   7.510  0.2540  0.0040 -0.2748
 2297TIP3    H124078   4.379   0.037   7.511  0.2552  0.8242 -0.1905
 2297TIP3    H224079   4.259  -0.044   7.556  0.9016  0.1773  0.3832
 2298TIP3   OH224080   1.508   6.115   5.810 -0.0975  0.3881  0.1981
 2298TIP3    H124081   1.461   6.161   5.879 -0.4066  0.6311 -0.1707
 2298TIP3    H224082   1.596   6.153   5.813 -0.6062  1.7184 -0.7287
 2299TIP3   OH224083   5.664   2.616   7.434  0.1347 -0.9144 -0.2420
 2299TIP3    H124084   5.679   2.543   7.374 -1.5113 -2.1492  0.7803
 2299TIP3    H224085   5.583   2.594   7.480  0.8437  0.4149  1.7932
 2300TIP3   OH224086   3.085   0.510   7.730  0.1813  0.0957 -0.3089
 2300TIP3    H124087   3.129   0.454   7.794 -1.6668  0.5291  1.4178
 2300TIP3    H224088   3.150   0.520   7.660  1.8074 -1.4392  0.8619
 2301TIP3   OH224089   2.052   1.862   6.200  0.6516  0.2224 -0.0426
 2301TIP3    H124090   2.011   1.896   6.279  0.8666  1.9310 -0.6309
 2301TIP3    H224091   2.033   1.927   6.132  1.0276 -0.8753 -1.2493
 2302TIP3   OH224092   2.927   5.392   7.296  0.3892 -0.0689 -0.3665
 2302TIP3    H124093   2.901   5.364   7.384  0.8132 -0.5866 -0.4038
 2302TIP3    H224094   2.847   5.385   7.244  0.6309 -1.8519 -0.5345
 2303TIP3   OH224095   6.199   6.005   7.483  0.6404  0.9634 -0.1700
 2303TIP3    H124096   6.216   6.071   7.551  0.2649 -0.2565  1.1428
 2303TIP3    H224097   6.225   5.922   7.522  0.2764  0.2062 -1.4713
 2304TIP3   OH224098   0.800   2.639   6.250  0.7434  0.0683 -0.2840
 2304TIP3    H124099   0.812   2.618   6.158  1.0173 -2.1428  0.2084
 2304TIP3    H224100   0.832   2.563   6.297  1.8854  1.6749  1.7197
 2305TIP3   OH224101   0.178   5.949   1.925  0.0357 -0.0267  0.2741
 2305TIP3    H124102   0.259   5.911   1.960 -0.8168 -2.8869 -0.5848
 2305TIP3    H224103   0.108   5.899   1.967 -1.1604  0.1347 -1.4200
 2306TIP3   OH224104   0.006   4.413   6.920  0.6821 -0.5053 -0.2788
 2306TIP3    H124105  -0.085   4.397   6.896  0.5134 -0.2716  0.1881
 2306TIP3    H224106   0.057   4.379   6.847  0.1068  2.2200 -2.0994
 2307TIP3   OH224107   5.694   1.688   0.111  0.2747 -0.3502  0.2409
 2307TIP3    H124108   5.731   1.600   0.124  1.7189 -0.0311 -1.3833
 2307TIP3    H224109   5.757   1.747   0.153 -0.0653 -0.0011  0.2666
 2308TIP3   OH224110   0.751   6.543   0.015 -0.1089 -0.0879  0.2249
 2308TIP3    H124111   0.662   6.534  -0.020  0.9951 -0.1695 -2.8216
 2308TIP3    H224112   0.789   6.455   0.005 -0.0418 -0.4487  2.8672
 2309TIP3   OH224113   5.616   4.955   1.349  0.3681  0.2535 -0.5524
 2309TIP3    H124114   5.572   4.926   1.429  1.7294  0.0770  0.1520
 2309TIP3    H224115   5.618   5.051   1.357  1.9798  0.1722  0.4718
 2310TIP3   OH224116   4.986   1.450   7.586 -0.0184  0.0016  0.0623
 2310TIP3    H124117   4.960   1.358   7.578  1.9587 -0.6245  0.2565
 2310TIP3    H224118   4.997   1.479   7.495  0.5352 -0.3399  0.0124
 2311TIP3   OH224119   1.161   5.471   6.814  0.2539 -0.6460 -0.1119
 2311TIP3    H124120   1.160   5.566   6.806 -0.3661 -0.7076 -0.8254
 2311TIP3    H224121   1.239   5.444   6.765 -1.2098 -0.7037 -2.5475
 2312TIP3   OH224122   2.074   2.756   1.447 -0.0719  0.1857  0.2892
 2312TIP3    H124123   2.017   2.814   1.395  0.4930  0.3039 -0.2022
 2312TIP3    H224124   2.013   2.703   1.499 -0.6496  0.0719 -0.4876
 2313TIP3   OH224125   6.346   4.734   7.237 -0.1277  0.8941 -0.4601
 2313TIP3    H124126   6.262   4.765   7.205 -0.2636  1.5264  0.4826
 2313TIP3    H224127   6.370   4.663   7.176 -1.7233  0.1374 -0.2636
 2314TIP3   OH224128   5.624   3.556   0.808  0.5485 -0.6652 -0.0940
 2314TIP3    H124129   5.678   3.616   0.859 -0.4647 -0.8238  1.1969
 2314TIP3    H224130   5.563   3.613   0.760  0.7647 -0.5774 -0.2658
 2315TIP3   OH224131   5.577   1.629   7.146  0.3027 -0.0819  0.4602
 2315TIP3    H124132   5.606   1.717   7.169  0.7766  0.0259 -0.4848
 2315TIP3    H224133   5.498   1.642   7.093 -0.3507 -0.2932  1.3501
 2316TIP3   OH224134   1.155   4.737   1.242 -0.4414 -0.7680 -0.2423
 2316TIP3    H124135   1.061   4.732   1.258 -0.1758  0.4174  2.1215
 2316TIP3    H224136   1.194   4.748   1.329  1.8267 -0.3822 -1.2239
 2317TIP3   OH224137   1.033   5.527   0.457  0.0215  0.7306  0.0035
 2317TIP3    H124138   1.004   5.611   0.492  0.5497  0.9684 -0.1198
 2317TIP3    H224139   1.127   5.537   0.446  0.0985  0.1028  0.0392
 2318TIP3   OH224140   0.410   1.353   0.685  0.0192  0.0565  0.7351
 2318TIP3    H124141   0.450   1.439   0.674  1.1997 -0.4208  1.1237
 2318TIP3    H224142   0.445   1.301   0.613 -0.4065 -0.1985  0.7084
 2319TIP3   OH224143   6.319   3.252   6.663 -0.5455 -0.2069 -0.9123
 2319TIP3    H124144   6.238   3.205   6.645 -0.2913 -0.8752 -0.3551
 2319TIP3    H224145   6.297   3.310   6.736 -0.2069 -1.3401  0.1362
 2320TIP3   OH224146   1.663   5.169   6.821 -0.0402  0.1478  0.0964
 2320TIP3    H124147   1.597   5.238   6.821 -0.0794  0.1435 -1.8420
 2320TIP3    H224148   1.615   5.091   6.848 -0.2773  0.5893  1.0112
 2321TIP3   OH224149   2.230   3.117   5.514  0.3559 -0.2687  0.5617
 2321TIP3    H124150   2.224   3.211   5.497  1.5582 -0.4344 -0.9554
 2321TIP3    H224151   2.166   3.077   5.455  0.8881 -0.4931  0.1270
 2322TIP3   OH224152   2.923   1.643   6.916 -0.4528 -0.3941  0.8044
 2322TIP3    H124153   2.993   1.577   6.913 -0.4840 -0.4207  0.6767
 2322TIP3    H224154   2.869   1.624   6.840 -0.5003 -0.2616  0.8057
 2323TIP3   OH224155   1.462   2.912   1.743 -0.3656 -0.4019  0.0783
 2323TIP3    H124156   1.551   2.929   1.773  0.0111  0.3718 -1.3875
 2323TIP3    H224157   1.447   2.820   1.766  0.1801 -0.1152  1.7931
 2324TIP3   OH224158   4.896   1.958   6.278 -0.6430  0.1983  0.1947
 2324TIP3    H124159   4.833   2.026   6.300 -0.6680 -0.2832  1.7359
 2324TIP3    H224160   4.879   1.889   6.343  1.3858  0.0155  0.5751
 2325TIP3   OH224161   6.421   5.142   0.952  0.3163 -0.1464  0.1583
 2325TIP3    H124162   6.345   5.198   0.968  0.6096 -0.2604  2.2134
 2325TIP3    H224163   6.389   5.053   0.967 -0.3298 -0.7563 -3.7568
 2326TIP3   OH224164   2.213   0.172   2.112  0.3164 -0.3704  0.2334
 2326TIP3    H124165   2.210   0.080   2.138  0.2988 -0.1846  0.9118
 2326TIP3    H224166   2.307   0.192   2.107  0.3243 -0.4967 -0.2001
 2327TIP3   OH224167   3.946   3.162   0.679 -0.1440  0.1767 -0.4297
 2327TIP3    H124168   4.022   3.110   0.706 -0.2691  1.0370  1.7605
 2327TIP3    H224169   3.980   3.251   0.670 -0.6557  0.3496 -0.6825
 2328TIP3   OH224170   5.935   6.313   0.234 -0.0431 -0.1952 -0.6429
 2328TIP3    H124171   5.951   6.255   0.160 -1.3707 -0.2940 -0.8742
 2328TIP3    H224172   5.869   6.268   0.286 -1.5218  1.3125 -1.1202
 2329TIP3   OH224173   6.484   3.190   7.099  0.4040 -0.2715 -0.3771
 2329TIP3    H124174   6.483   3.242   7.018  0.0692 -0.0467 -0.2283
 2329TIP3    H224175   6.482   3.256   7.169  2.2786 -0.3819 -0.1554
 2330TIP3   OH224176   3.510   3.145   6.259  0.0808 -0.1621  0.5420
 2330TIP3    H124177   3.454   3.208   6.214 -1.2755 -1.3668  0.4661
 2330TIP3    H224178   3.544   3.192   6.335 -1.1850  0.5606  0.6833
 2331TIP3   OH224179   4.367   5.866   0.588 -0.1884  0.5215  0.4104
 2331TIP3    H124180   4.322   5.928   0.645  1.1702 -0.1096  2.2497
 2331TIP3    H224181   4.348   5.780   0.626  0.9116  0.0931  0.0391
 2332TIP3   OH224182   3.661   3.377   7.608 -0.0974  0.2911 -0.1515
 2332TIP3    H124183   3.613   3.384   7.691  0.2459 -0.6068  0.1424
 2332TIP3    H224184   3.600   3.410   7.542 -0.3926  0.9734  0.4517
 2333TIP3   OH224185   3.860   3.002   5.529  0.3976  0.4035 -0.3887
 2333TIP3    H124186   3.848   2.972   5.619  2.6030  0.3839 -0.0450
 2333TIP3    H224187   3.818   2.935   5.475 -0.2770  0.0173  0.6007
 2334TIP3   OH224188   5.396   4.270   7.609  0.5353  0.0694  0.1796
 2334TIP3    H124189   5.386   4.220   7.690  1.9375 -1.5395 -0.5581
 2334TIP3    H224190   5.319   4.247   7.557 -0.4056  1.1645  1.0507
 2335TIP3   OH224191   1.076   0.694   2.087  0.5693 -0.1005  0.3560
 2335TIP3    H124192   1.038   0.757   2.026  0.3209 -0.7088 -0.1237
 2335TIP3    H224193   1.064   0.609   2.045 -0.0096 -0.5746  1.4572
 2336TIP3   OH224194   6.401   0.343   6.792  0.3426 -0.2064  0.1205
 2336TIP3    H124195   6.450   0.339   6.874 -0.3544 -0.1654  0.5465
 2336TIP3    H224196   6.380   0.252   6.772  0.2101 -0.1878  0.1746
 2337TIP3   OH224197   6.362   4.415   1.928 -0.7310  0.4611  0.0136
 2337TIP3    H124198   6.444   4.453   1.957 -0.7072  0.5397 -0.1580
 2337TIP3    H224199   6.321   4.382   2.008 -0.9843  1.2956  0.2332
 2338TIP3   OH224200   3.515   4.032   7.640  0.0560  0.3873  0.2307
 2338TIP3    H124201   3.606   4.022   7.670  0.0275  1.1189  0.5816
 2338TIP3    H224202   3.486   3.942   7.623  1.3419  0.2357 -1.4121
 2339TIP3   OH224203   0.914   4.437   1.202  0.0147  0.8882  0.4168
 2339TIP3    H124204   0.980   4.432   1.132  1.4393 -1.5739  1.7918
 2339TIP3    H224205   0.830   4.440   1.155  0.9338  0.0107 -1.4031
 2340TIP3   OH224206   0.381   1.647   0.218 -0.2291 -0.5198 -0.1524
 2340TIP3    H124207   0.316   1.636   0.288  1.3901  0.4784  1.5867
 2340TIP3    H224208   0.344   1.599   0.144 -2.2686 -1.1848  1.2031
 2341TIP3   OH224209   4.089   3.073   6.617  0.0386 -0.8302  0.4512
 2341TIP3    H124210   4.006   3.069   6.570 -0.7302 -0.5909  1.7456
 2341TIP3    H224211   4.090   3.159   6.658  0.8918 -0.8675  0.5354
 2342TIP3   OH224212   6.208   4.235   7.279  0.1198 -0.2017 -0.1315
 2342TIP3    H124213   6.269   4.182   7.331  0.2070 -0.4699 -0.4995
 2342TIP3    H224214   6.123   4.221   7.320  0.0103 -1.2590 -0.6910
 2343TIP3   OH224215   6.307   0.077   6.764  0.6550 -0.3032  0.6100
 2343TIP3    H124216   6.285   0.109   6.851  0.1333 -0.1214  0.4106
 2343TIP3    H224217   6.245   0.006   6.747 -0.5812  0.9707 -0.4233
 2344TIP3   OH224218   1.303   3.286   1.873 -0.6460 -0.1837 -0.2048
 2344TIP3    H124219   1.272   3.199   1.899 -0.7531 -0.9872 -2.7621
 2344TIP3    H224220   1.396   3.287   1.897 -0.8549 -0.6377  0.6613
 2345TIP3   OH224221   5.979   1.258   1.079  0.6330  0.1265  0.1412
 2345TIP3    H124222   5.937   1.334   1.119  2.9729  1.3095  0.5667
 2345TIP3    H224223   6.063   1.251   1.123  0.1300 -3.4148  0.8243
 2346TIP3   OH224224   1.791   5.879   0.895 -0.1806  0.2003 -0.6659
 2346TIP3    H124225   1.706   5.904   0.860 -0.1007  2.3310  0.4759
 2346TIP3    H224226   1.773   5.849   0.984  0.1269 -0.6836 -0.8923
 2347TIP3   OH224227   3.899   5.361   1.343 -0.2128 -0.0315 -0.0505
 2347TIP3    H124228   3.897   5.414   1.423 -1.6647 -1.5595  1.0168
 2347TIP3    H224229   3.813   5.374   1.303  0.0537 -0.2357 -0.6985
 2348TIP3   OH224230   3.834   4.555   1.144  0.7011  0.4957  0.0009
 2348TIP3    H124231   3.903   4.559   1.211 -0.4945  0.5555  1.2585
 2348TIP3    H224232   3.758   4.594   1.186 -0.3450 -0.3575 -1.0629
 2349TIP3   OH224233   5.452   5.238   6.452  0.2329 -0.4912 -0.0981
 2349TIP3    H124234   5.410   5.160   6.414  1.5436 -0.9146 -0.7605
 2349TIP3    H224235   5.502   5.203   6.526  2.3557 -0.6376 -1.5295
 2350TIP3   OH224236   1.881   2.907   7.700  0.4609  0.1934 -0.3110
 2350TIP3    H124237   1.850   2.862   7.621 -1.3201 -1.7735  1.4158
 2350TIP3    H224238   1.955   2.855   7.731 -0.9394 -1.0196  1.1087
 2351TIP3   OH224239   0.827   0.810   0.804  0.2488  0.0681  0.5179
 2351TIP3    H124240   0.900   0.761   0.766  1.0388  1.9548 -0.5377
 2351TIP3    H224241   0.757   0.802   0.739  0.6437  0.9430 -0.0342
 2352TIP3   OH224242   4.933   3.461   1.679 -0.0419 -0.0932 -0.2779
 2352TIP3    H124243   4.994   3.505   1.739  0.7453 -2.0249  0.4102
 2352TIP3    H224244   4.985   3.444   1.601 -0.2442 -0.1030 -0.4092
 2353TIP3   OH224245   1.185   3.190   2.673  0.2697  0.2933  0.0098
 2353TIP3    H124246   1.106   3.234   2.703  1.0547  0.8082  1.4182
 2353TIP3    H224247   1.196   3.117   2.733  1.2011  0.6135  0.2530
 2354TIP3   OH224248   5.268   0.868   0.698 -0.3825  0.2754  0.4616
 2354TIP3    H124249   5.233   0.847   0.611 -1.2413  0.4432  0.7568
 2354TIP3    H224250   5.282   0.963   0.695  1.5076  0.0174 -0.1609
 2355TIP3   OH224251   2.325   3.352   7.534  0.2524  0.5408  0.0882
 2355TIP3    H124252   2.324   3.447   7.544  0.0976  0.7165 -1.3259
 2355TIP3    H224253   2.401   3.322   7.583  0.1757  1.3622  0.7207
 2356TIP3   OH224254   4.579   1.133   6.874  0.5035 -0.3177  0.2873
 2356TIP3    H124255   4.487   1.115   6.895  0.1563  1.5504  0.5508
 2356TIP3    H224256   4.579   1.154   6.781  0.3914  1.0655  0.5732
 2357TIP3   OH224257   6.142   5.348   7.290 -0.3876  0.1424 -0.3910
 2357TIP3    H124258   6.111   5.358   7.381  0.8460 -1.8237  0.3064
 2357TIP3    H224259   6.211   5.414   7.281 -0.4849  0.3199  0.1170
 2358TIP3   OH224260   2.928   5.226   1.130 -0.7859  0.0092 -0.5600
 2358TIP3    H124261   2.981   5.272   1.064 -1.6080  0.9015 -0.6322
 2358TIP3    H224262   2.991   5.195   1.194 -0.1385  0.7784 -0.8061
 2359TIP3   OH224263   5.868   3.097   6.245 -0.6970  0.4659 -0.0782
 2359TIP3    H124264   5.910   3.056   6.169  0.9469  0.5772  0.7234
 2359TIP3    H224265   5.891   3.190   6.238  0.2890  0.3293  1.0335
 2360TIP3   OH224266   3.696   6.158   0.353  0.1957  0.0361 -0.2486
 2360TIP3    H124267   3.667   6.234   0.303 -0.0424 -0.5685 -1.0356
 2360TIP3    H224268   3.747   6.196   0.425 -0.2844  0.9630 -0.3725
 2361TIP3   OH224269   1.738   0.875   0.916 -0.2674  0.8164  0.0157
 2361TIP3    H124270   1.781   0.805   0.965  1.3552  1.8082  0.0683
 2361TIP3    H224271   1.744   0.951   0.973  0.2767  1.6099 -1.0692
 2362TIP3   OH224272   2.803   1.133   5.760 -0.3444  0.0336 -0.8581
 2362TIP3    H124273   2.869   1.103   5.697  1.9750 -0.3556  1.5837
 2362TIP3    H224274   2.734   1.068   5.754 -1.1703  1.0002 -4.2479
 2363TIP3   OH224275   1.962   3.187   6.605  0.1998  0.4466  0.1791
 2363TIP3    H124276   1.928   3.248   6.539  0.0630 -0.2842 -0.4443
 2363TIP3    H224277   2.044   3.228   6.634  0.9259  0.1986 -1.3752
 2364TIP3   OH224278   6.466   6.404   2.107 -0.1530  0.1951  0.0395
 2364TIP3    H124279   6.532   6.338   2.127  0.4422  0.4930 -0.8659
 2364TIP3    H224280   6.423   6.422   2.191  0.3501 -0.6066  0.4787
 2365TIP3   OH224281   4.630   0.258   0.737 -0.1247 -0.2035 -0.0504
 2365TIP3    H124282   4.631   0.270   0.642 -0.4724  0.1652 -0.0118
 2365TIP3    H224283   4.593   0.171   0.751 -1.2833  0.2422 -0.2156
 2366TIP3   OH224284   5.959   1.553   7.630  0.0189  0.9647  0.1924
 2366TIP3    H124285   5.916   1.472   7.656  1.5865  0.2739  0.7783
 2366TIP3    H224286   5.887   1.614   7.612 -1.2100 -0.7582 -1.0220
 2367TIP3   OH224287   5.658   0.922   6.105  0.5712  0.0556  0.2679
 2367TIP3    H124288   5.730   0.978   6.137 -1.0901  1.9027  0.9862
 2367TIP3    H224289   5.611   0.897   6.184  0.5542 -1.3903 -0.1776
 2368TIP3   OH224290   3.736   3.387   0.812  0.1953 -0.0767 -1.1060
 2368TIP3    H124291   3.664   3.367   0.871  0.9313 -1.0412 -0.5149
 2368TIP3    H224292   3.755   3.480   0.828 -0.2696 -0.0738 -0.5564
 2369TIP3   OH224293   1.847   1.749   4.249  0.1716 -1.1197 -0.1137
 2369TIP3    H124294   1.794   1.765   4.327  0.3097 -1.1776 -0.0075
 2369TIP3    H224295   1.784   1.720   4.182 -0.3861  1.5835 -0.8708
 2370TIP3   OH224296   0.543   3.215   7.563 -0.6214 -0.1602 -0.0486
 2370TIP3    H124297   0.511   3.166   7.488  0.8209  1.7421 -2.0448
 2370TIP3    H224298   0.637   3.199   7.564 -0.5301  0.3357  0.9955
 2371TIP3   OH224299   2.852   1.465   2.396 -0.3531 -0.1788  0.1362
 2371TIP3    H124300   2.885   1.509   2.475  0.1130 -1.3915  0.6359
 2371TIP3    H224301   2.872   1.526   2.325  1.3101 -0.0638  0.6592
 2372TIP3   OH224302   1.128   2.335   1.193 -0.0049 -0.1651 -0.4816
 2372TIP3    H124303   1.162   2.356   1.106 -0.9796 -1.1984 -1.1475
 2372TIP3    H224304   1.161   2.404   1.250 -0.8374  1.5533 -2.0069
 2373TIP3   OH224305   6.631   5.015   0.318  0.1287  0.3343 -0.1376
 2373TIP3    H124306   6.665   4.960   0.247 -0.0388 -1.7309  1.2660
 2373TIP3    H224307   6.671   4.977   0.397 -0.6168  1.8022  0.9783
 2374TIP3   OH224308   0.350   4.961   0.518 -0.3002  0.0822 -0.2148
 2374TIP3    H124309   0.310   4.962   0.605  2.0246  0.1373  0.9163
 2374TIP3    H224310   0.359   5.053   0.494  0.8940  0.1481  0.4169
 2375TIP3   OH224311   0.299   1.537   6.867  0.6357  0.3755  0.0528
 2375TIP3    H124312   0.322   1.618   6.821  2.0283 -0.3969 -0.7008
 2375TIP3    H224313   0.212   1.515   6.834 -0.5349  2.4025  1.5369
 2376TIP3   OH224314   1.328   0.924   1.659 -0.2897  0.1601 -0.0263
 2376TIP3    H124315   1.242   0.891   1.683 -0.6182  1.9780  1.5809
 2376TIP3    H224316   1.316   1.019   1.649  1.3439  0.3470 -0.5967
 2377TIP3   OH224317   5.332   4.165   7.210 -0.1741 -0.0439 -0.3520
 2377TIP3    H124318   5.310   4.121   7.129 -1.0341 -0.1763 -0.0540
 2377TIP3    H224319   5.332   4.096   7.276 -0.2116  0.1807 -0.1147
 2378TIP3   OH224320   3.256   5.434   5.960  0.2920 -0.6867  0.3990
 2378TIP3    H124321   3.167   5.466   5.944  1.0959  1.4159 -0.2851
 2378TIP3    H224322   3.258   5.415   6.054 -0.8112 -0.5776  0.4623
 2379TIP3   OH224323   3.617   1.480   2.103 -0.1498 -0.3162 -0.2501
 2379TIP3    H124324   3.625   1.576   2.101 -2.2210 -0.1016 -1.8263
 2379TIP3    H224325   3.543   1.464   2.161  1.3856 -1.1579  1.5841
 2380TIP3   OH224326   0.636   2.327   7.053  0.5368  0.2849  0.1354
 2380TIP3    H124327   0.602   2.358   7.137  0.0469 -0.4857  0.2348
 2380TIP3    H224328   0.671   2.240   7.072  0.3506  0.0711 -0.4779
 2381TIP3   OH224329   4.150   1.417   1.850 -0.2481  0.0412 -0.4730
 2381TIP3    H124330   4.085   1.348   1.865 -0.0760 -0.0932 -0.3366
 2381TIP3    H224331   4.117   1.492   1.900  1.2786 -0.9733  2.2590
 2382TIP3   OH224332   2.070   4.600   6.016 -0.1603  0.3874 -0.2811
 2382TIP3    H124333   2.041   4.519   5.974  1.9250 -1.7021  1.9721
 2382TIP3    H224334   2.119   4.646   5.948 -3.1506  0.9623 -2.2461
 2383TIP3   OH224335   4.834   5.249   6.777  0.2611  0.0069 -0.3629
 2383TIP3    H124336   4.760   5.194   6.803  0.1557  0.4932  0.3952
 2383TIP3    H224337   4.793   5.323   6.731  0.3336 -0.0928 -0.5888
 2384TIP3   OH224338   5.128   4.053   7.656 -0.1156  0.6400  0.1225
 2384TIP3    H124339   5.050   4.098   7.622 -0.5044 -0.9711 -1.1962
 2384TIP3    H224340   5.193   4.061   7.587  0.0699 -0.1314  0.2005
 2385TIP3   OH224341   1.102   2.776   0.127 -0.3938 -0.0156  0.6619
 2385TIP3    H124342   1.154   2.739   0.198  0.7397 -2.0632 -1.1221
 2385TIP3    H224343   1.020   2.726   0.128 -1.0182  0.9617  1.3789
 2386TIP3   OH224344   1.258   4.161   6.591  0.3289  0.5192  0.6666
 2386TIP3    H124345   1.234   4.079   6.549  0.1530  0.1479  1.4820
 2386TIP3    H224346   1.250   4.144   6.685 -2.3610  2.2238  0.8570
 2387TIP3   OH224347   5.693   0.642   2.042  0.1534 -0.2979  0.0944
 2387TIP3    H124348   5.602   0.612   2.035  0.6258 -2.0385  0.8592
 2387TIP3    H224349   5.691   0.710   2.109 -0.6903  0.2239 -0.4420
 2388TIP3   OH224350   6.524   4.598   2.252 -0.6042 -0.2575  0.2675
 2388TIP3    H124351   6.487   4.512   2.238 -1.5851 -0.0396  1.3834
 2388TIP3    H224352   6.528   4.608   2.348  0.6661  0.4443  0.1771
 2389TIP3   OH224353   1.623   1.629   0.228 -0.0720  0.4964  0.2780
 2389TIP3    H124354   1.547   1.588   0.188  0.3334  0.6304 -0.6460
 2389TIP3    H224355   1.664   1.678   0.157 -0.2745  2.1235  1.2390
 2390TIP3   OH224356   2.086   5.990   5.693 -0.0127 -0.3004 -0.0148
 2390TIP3    H124357   2.108   6.081   5.674 -0.0781 -0.0465  1.0466
 2390TIP3    H224358   2.157   5.959   5.749  0.1841 -1.0131 -0.6474
 2391TIP3   OH224359   0.551   5.371   6.073  0.0965 -0.4813  0.5236
 2391TIP3    H124360   0.530   5.291   6.025  0.2070 -1.2527  1.7133
 2391TIP3    H224361   0.482   5.433   6.049  0.3780 -0.6842 -0.9290
 2392TIP3   OH224362   2.693   4.821   0.316 -0.3800 -0.3862 -0.0859
 2392TIP3    H124363   2.628   4.834   0.247  0.7245 -1.0487 -1.2922
 2392TIP3    H224364   2.685   4.729   0.340  0.2141 -0.5080 -0.3472
 2393TIP3   OH224365   3.031   3.068   6.336 -0.6306  0.1991  0.3912
 2393TIP3    H124366   3.014   3.161   6.319 -0.7382  0.1601  0.2804
 2393TIP3    H224367   3.081   3.038   6.260 -0.9339  0.0736  0.2398
 2394TIP3   OH224368   1.361   4.369   6.458 -0.3103  0.3023 -0.2747
 2394TIP3    H124369   1.404   4.418   6.528 -0.6149  0.1268  0.0377
 2394TIP3    H224370   1.317   4.297   6.503 -0.9037  0.4632 -0.5979
 2395TIP3   OH224371   3.728   6.350   1.595 -0.2992 -0.0628  0.2821
 2395TIP3    H124372   3.659   6.307   1.646 -0.3265 -1.2429 -0.6879
 2395TIP3    H224373   3.805   6.295   1.611 -0.2390 -0.2730 -0.6861
 2396TIP3   OH224374   0.696   5.711   7.010  0.4570 -0.2381  0.2079
 2396TIP3    H124375   0.698   5.618   7.032  0.4925 -0.1715  0.4864
 2396TIP3    H224376   0.732   5.715   6.922  0.6201 -0.4703  0.2627
 2397TIP3   OH224377   4.867   0.888   7.197  0.2989  0.3113 -0.1467
 2397TIP3    H124378   4.778   0.899   7.232 -0.2340  3.5674 -2.1555
 2397TIP3    H224379   4.862   0.807   7.146 -1.2511 -0.0394  0.4966
 2398TIP3   OH224380   1.606   0.929   6.792  0.0866  0.0300  0.0129
 2398TIP3    H124381   1.620   0.950   6.700  0.7595  2.5138  0.6224
 2398TIP3    H224382   1.652   0.846   6.805 -0.7521 -0.8231 -2.0307
 2399TIP3   OH224383   2.254   1.444   1.448 -0.1901 -0.2762  0.5549
 2399TIP3    H124384   2.182   1.424   1.387 -0.8349 -0.3299  1.3216
 2399TIP3    H224385   2.243   1.536   1.468 -0.2579 -0.3710  0.9496
 2400TIP3   OH224386   2.553   4.723   5.798 -0.2912  0.1315  0.0055
 2400TIP3    H124387   2.568   4.668   5.721  0.8705 -0.0056  0.2984
 2400TIP3    H224388   2.512   4.802   5.764 -1.3881 -0.6322 -0.5092
 2401TIP3   OH224389   3.006   5.181   7.099 -0.5279  0.7673 -0.1297
 2401TIP3    H124390   2.963   5.105   7.140  0.6643 -0.7752 -1.6064
 2401TIP3    H224391   2.940   5.250   7.102 -0.7517  0.5871  3.7028
 2402TIP3   OH224392   6.381   1.152   0.556  0.4639  0.7635 -0.1746
 2402TIP3    H124393   6.339   1.070   0.582  0.8193  0.5524 -0.2491
 2402TIP3    H224394   6.326   1.221   0.593 -0.1680  0.5039 -0.6178
 2403TIP3   OH224395   3.688   5.281   6.308 -0.5712 -0.2728 -0.8611
 2403TIP3    H124396   3.601   5.280   6.347 -1.3502 -1.4590 -2.5231
 2403TIP3    H224397   3.673   5.275   6.214  1.3019  0.3290 -1.2529
 2404TIP3   OH224398   4.033   3.539   1.593 -0.3380  0.5522  0.0815
 2404TIP3    H124399   4.118   3.568   1.627 -0.1373 -2.1115  2.1319
 2404TIP3    H224400   3.973   3.549   1.668 -0.7443 -1.9199  0.1510
 2405TIP3   OH224401   5.395   0.222   5.747 -0.3518  0.0197  0.2496
 2405TIP3    H124402   5.458   0.187   5.809 -1.7207 -0.8054  1.2333
 2405TIP3    H224403   5.311   0.186   5.775 -1.3704  1.5705 -0.6261
 2406TIP3   OH224404   3.111   1.123   7.526  0.1491 -0.0875 -0.2247
 2406TIP3    H124405   3.054   1.105   7.601  0.6376  1.7130  0.6302
 2406TIP3    H224406   3.072   1.199   7.484  1.4192  0.6374 -0.1376
 2407TIP3   OH224407   6.184   5.002   6.628  0.4750  0.1084 -0.1301
 2407TIP3    H124408   6.235   4.925   6.603 -1.2449 -1.4254  0.8134
 2407TIP3    H224409   6.157   5.040   6.545 -1.2499 -2.1964 -0.7468
 2408TIP3   OH224410   0.607   4.575   6.602  0.2659  0.2916  0.0578
 2408TIP3    H124411   0.646   4.663   6.606  1.4761 -0.2558  3.3739
 2408TIP3    H224412   0.631   4.543   6.516  0.9577  2.7031 -0.7398
 2409TIP3   OH224413   4.007   6.227   6.329  0.2175  0.2471 -0.2921
 2409TIP3    H124414   4.053   6.257   6.408  2.4577 -1.5831 -0.7671
 2409TIP3    H224415   4.033   6.289   6.261  0.7729  0.1252 -0.2033
 2410TIP3   OH224416   3.412   4.506   7.280 -0.3456 -0.2385  0.5080
 2410TIP3    H124417   3.487   4.514   7.339  1.3817  2.0581 -1.7741
 2410TIP3    H224418   3.358   4.582   7.300 -0.5427 -0.2837  0.1501
 2411TIP3   OH224419   3.182   1.899   7.684 -0.0536 -0.3504  0.5345
 2411TIP3    H124420   3.228   1.897   7.767  0.8372  0.3057  0.0782
 2411TIP3    H224421   3.239   1.950   7.626 -0.3546 -1.3239 -0.6572
 2412TIP3   OH224422   6.082   1.015   1.378  0.4985 -0.1050 -0.0668
 2412TIP3    H124423   6.088   1.110   1.376 -1.3750  0.0513  0.1538
 2412TIP3    H224424   6.154   0.987   1.434  1.2023  1.1611 -0.3129
 2413TIP3   OH224425   0.347   5.173   0.062 -0.3285  0.1385 -0.1792
 2413TIP3    H124426   0.309   5.122   0.134 -0.4078  2.1259  1.2783
 2413TIP3    H224427   0.328   5.264   0.085  1.8750  0.9796 -1.4259
 2414TIP3   OH224428   2.493   4.387   6.351 -0.1960  0.3543 -0.3015
 2414TIP3    H124429   2.486   4.314   6.412  1.2481 -0.0193 -0.5574
 2414TIP3    H224430   2.402   4.410   6.331 -0.6983 -1.6512 -0.5643
 2415TIP3   OH224431   0.995   6.461   2.397 -0.0787  0.0401  0.0660
 2415TIP3    H124432   0.917   6.407   2.388  1.3575 -2.0026 -1.0148
 2415TIP3    H224433   0.997   6.513   2.317 -0.2661 -0.0010  0.0347
 2416TIP3   OH224434   5.998   5.076   7.351  0.4310 -0.5934 -0.2266
 2416TIP3    H124435   5.973   5.123   7.271 -0.5342 -0.7745 -0.0430
 2416TIP3    H224436   5.915   5.051   7.391  0.9005 -0.2507  0.9961
 2417TIP3   OH224437   0.720   2.970   1.889  0.2704 -1.0610  0.1313
 2417TIP3    H124438   0.654   2.901   1.888  0.9729 -1.7535  0.5189
 2417TIP3    H224439   0.745   2.978   1.981  0.6981 -0.7714 -0.0037
 2418TIP3   OH224440   3.648   4.723   0.365 -0.2497  0.0377 -0.1834
 2418TIP3    H124441   3.641   4.808   0.409 -0.8790  0.9591 -1.9421
 2418TIP3    H224442   3.741   4.700   0.371 -0.4783 -0.5311  2.6589
 2419TIP3   OH224443   4.200   3.411   1.878 -0.7615 -0.8884 -0.3454
 2419TIP3    H124444   4.218   3.480   1.814 -1.3381 -1.5159 -1.2110
 2419TIP3    H224445   4.176   3.457   1.958  2.0222 -0.0200  0.1219
 2420TIP3   OH224446   0.484   4.428   0.391 -0.0014 -0.2366  0.1734
 2420TIP3    H124447   0.456   4.513   0.424 -0.8044 -0.3786 -0.1359
 2420TIP3    H224448   0.508   4.444   0.300 -1.6107 -0.6199 -0.3492
 2421TIP3   OH224449   2.084   1.260   1.060 -0.3839 -0.1002 -0.3999
 2421TIP3    H124450   2.175   1.235   1.045 -0.2797  0.4515 -0.7301
 2421TIP3    H224451   2.042   1.246   0.975 -0.2620  1.0753 -0.6690
 2422TIP3   OH224452   4.074   4.265   1.278 -0.1308  0.1196 -0.3842
 2422TIP3    H124453   4.080   4.218   1.361 -1.2887 -0.8547 -0.8346
 2422TIP3    H224454   4.039   4.351   1.301  0.1709  0.0938  0.1991
 2423TIP3   OH224455   2.795   2.069   1.507 -0.1578  0.2714  0.3115
 2423TIP3    H124456   2.830   1.980   1.504  0.4881  0.4580  1.5222
 2423TIP3    H224457   2.757   2.084   1.421  0.6630 -0.8033 -0.2491
 2424TIP3   OH224458   5.698   3.589   7.361  0.2797  0.1879 -0.1559
 2424TIP3    H124459   5.660   3.558   7.279 -2.2236 -0.4364  1.1307
 2424TIP3    H224460   5.644   3.664   7.386 -0.3423 -0.8509  1.8610
 2425TIP3   OH224461   4.615   5.655   0.972 -0.1956 -0.1076  0.3250
 2425TIP3    H124462   4.649   5.723   0.915  0.5459 -2.4875 -2.3110
 2425TIP3    H224463   4.682   5.644   1.039 -0.4420  1.8397  0.9427
 2426TIP3   OH224464   3.770   2.830   6.845  0.0317  0.8728  0.0774
 2426TIP3    H124465   3.799   2.781   6.769  1.1359  0.8068  0.5308
 2426TIP3    H224466   3.674   2.821   6.844  0.1344 -0.3013 -0.5016
 2427TIP3   OH224467   2.786   3.385   7.682 -0.3596 -0.4386 -0.5765
 2427TIP3    H124468   2.700   3.367   7.645 -1.1728  0.6081  0.6913
 2427TIP3    H224469   2.792   3.481   7.683  0.9465 -0.5031 -0.9274
 2428TIP3   OH224470   4.516   1.614   0.019  0.1316 -0.2504 -0.3229
 2428TIP3    H124471   4.470   1.675   0.078 -1.3169  0.4642 -2.1120
 2428TIP3    H224472   4.603   1.652   0.009 -0.2276  0.6512 -0.1356
 2429TIP3   OH224473   2.294   0.311   6.596 -0.4767  0.6018 -0.0345
 2429TIP3    H124474   2.326   0.306   6.686  0.8197  0.0790 -0.5026
 2429TIP3    H224475   2.323   0.396   6.564  0.1094  0.2946 -0.3321
 2430TIP3   OH224476   2.063   5.560   5.661 -0.1705  0.0234  0.1094
 2430TIP3    H124477   2.070   5.466   5.647  1.9697  0.1652 -0.0771
 2430TIP3    H224478   2.134   5.598   5.609 -0.0599  1.6181  1.3382
 2431TIP3   OH224479   5.761   0.611   7.590 -0.0066  0.0803 -0.2405
 2431TIP3    H124480   5.844   0.635   7.632  0.6897 -3.3869  0.7072
 2431TIP3    H224481   5.788   0.566   7.509 -1.1753  1.8849 -1.7312
 2432TIP3   OH224482   3.344   3.457   6.342  0.0015 -0.2334 -0.3226
 2432TIP3    H124483   3.428   3.497   6.365 -0.3640 -0.1980  1.0348
 2432TIP3    H224484   3.289   3.530   6.315  0.5190 -0.3051 -1.6372
 2433TIP3   OH224485   5.000   4.569   0.555  0.2074  0.0532  0.5074
 2433TIP3    H124486   4.910   4.550   0.531 -0.0123  1.6669 -0.0698
 2433TIP3    H224487   4.994   4.605   0.644  0.1840  0.8012  0.2116
 2434TIP3   OH224488   4.090   3.435   0.275  0.5041  0.3804 -0.2755
 2434TIP3    H124489   4.030   3.429   0.201  0.7930  3.1850 -0.8523
 2434TIP3    H224490   4.129   3.522   0.267  4.1950 -1.0400  0.4578
 2435TIP3   OH224491   1.415   3.605   0.020 -0.6283  0.1066  0.2873
 2435TIP3    H124492   1.395   3.640   0.107  1.5791  0.7552  0.5789
 2435TIP3    H224493   1.471   3.530   0.037  1.2906  1.2794 -0.5920
 2436TIP3   OH224494   6.277   5.325   1.389 -0.4103  0.5149 -0.7704
 2436TIP3    H124495   6.225   5.316   1.468 -0.2630 -0.3642 -0.7540
 2436TIP3    H224496   6.290   5.234   1.359  1.8987  0.6148 -0.2402
 2437TIP3   OH224497   6.077   0.985   7.675  0.3752  0.2107 -0.1393
 2437TIP3    H124498   6.142   1.035   7.627 -0.7542  2.1046  0.2132
 2437TIP3    H224499   6.127   0.945   7.747  1.2382  1.2774 -0.1122
 2438TIP3   OH224500   5.515   1.344   7.028 -0.0164  0.3122  0.0185
 2438TIP3    H124501   5.589   1.338   6.968  0.3230 -0.2908  0.4840
 2438TIP3    H224502   5.442   1.302   6.982 -0.1165  1.0315 -0.4967
 2439TIP3   OH224503   5.418   0.133   5.356 -0.0008 -0.4816 -0.0703
 2439TIP3    H124504   5.505   0.105   5.381  0.7207 -0.0388 -1.9214
 2439TIP3    H224505   5.361   0.059   5.379  1.2221 -1.7555 -0.9985
 2440TIP3   OH224506   0.397   4.716   0.426 -0.0805  0.1732  0.4221
 2440TIP3    H124507   0.306   4.689   0.411 -0.0367  0.0858  0.3044
 2440TIP3    H224508   0.391   4.803   0.465 -0.2088  0.2609  0.2084
 2441TIP3   OH224509   3.277   0.758   0.601 -0.1378  0.7034 -0.2904
 2441TIP3    H124510   3.184   0.772   0.620 -0.4677 -0.0145 -1.2880
 2441TIP3    H224511   3.310   0.711   0.677 -0.7274  0.4786 -0.1665
 2442TIP3   OH224512   5.059   1.699   1.988 -0.1391 -0.3537  0.1977
 2442TIP3    H124513   5.028   1.737   1.906 -0.9825 -0.8867  0.2621
 2442TIP3    H224514   5.010   1.746   2.056 -1.0975 -1.4366  0.2822
 2443TIP3   OH224515   1.108   5.822   0.133  0.1180  0.0014  0.3037
 2443TIP3    H124516   1.099   5.884   0.060  2.8212  0.2973  0.1330
 2443TIP3    H224517   1.200   5.828   0.159 -0.2446 -1.7530  2.2972
 2444TIP3   OH224518   4.310   1.818   7.456  0.2271 -0.1009 -0.2807
 2444TIP3    H124519   4.362   1.743   7.487  1.8592  1.8453  2.1928
 2444TIP3    H224520   4.360   1.853   7.383  0.0390 -0.7817 -0.7409
 2445TIP3   OH224521   1.380   1.771   0.032 -0.1252 -0.6834 -0.2559
 2445TIP3    H124522   1.394   1.676   0.027  0.7669 -0.5641 -0.2338
 2445TIP3    H224523   1.294   1.780   0.073 -0.9234 -1.4926 -1.6731
 2446TIP3   OH224524   3.489   3.985   6.943 -0.4923 -0.2046 -0.4763
 2446TIP3    H124525   3.555   3.990   6.874 -1.0834 -1.2931 -1.1370
 2446TIP3    H224526   3.525   4.039   7.014  0.9681 -0.5470 -0.9261
 2447TIP3   OH224527   4.821   2.699   6.760  0.2224  0.2810 -0.0367
 2447TIP3    H124528   4.762   2.756   6.809 -1.6431 -0.1473 -1.6575
 2447TIP3    H224529   4.794   2.610   6.784 -0.3050  0.0717 -1.3179
 2448TIP3   OH224530   5.640   6.432   1.047 -0.2304  0.2498 -0.3588
 2448TIP3    H124531   5.656   6.343   1.079  0.6870 -0.2715 -2.0999
 2448TIP3    H224532   5.630   6.421   0.952 -1.8074  1.8165 -0.4061
 2449TIP3   OH224533   4.057   0.857   7.404 -0.5046  0.5748 -0.7463
 2449TIP3    H124534   4.136   0.893   7.445 -1.1825  0.2963  0.8680
 2449TIP3    H224535   4.090   0.788   7.346  0.4607  0.5711 -0.2160
 2450TIP3   OH224536   1.742   2.796   7.192 -0.3820 -0.7066 -0.9147
 2450TIP3    H124537   1.711   2.870   7.139 -1.4584  0.0127  0.6214
 2450TIP3    H224538   1.663   2.761   7.233  0.3516 -1.4857 -0.1103
 2451TIP3   OH224539   0.717   6.460   6.570  0.2956  0.1563 -0.1767
 2451TIP3    H124540   0.794   6.454   6.626 -0.6500  0.7657  1.2763
 2451TIP3    H224541   0.747   6.434   6.483  1.9027 -0.5124  0.5451
 2452TIP3   OH224542   0.099   6.216   1.228 -0.6180  0.1904  0.4850
 2452TIP3    H124543   0.077   6.195   1.137 -2.3957  0.0021  0.9364
 2452TIP3    H224544   0.098   6.132   1.273 -0.5648  0.3926  0.8605
 2453TIP3   OH224545   2.309   3.719   6.393  0.1630 -0.2649 -0.1500
 2453TIP3    H124546   2.359   3.739   6.314 -0.3871 -1.0399 -0.7034
 2453TIP3    H224547   2.287   3.805   6.430  1.1902  0.0893 -0.3370
 2454TIP3   OH224548   2.566   5.805   6.814 -0.1665  0.1013 -0.6706
 2454TIP3    H124549   2.645   5.796   6.867 -0.4944  0.4083 -0.1265
 2454TIP3    H224550   2.524   5.719   6.818 -0.3372  0.2026 -0.1902
 2455TIP3   OH224551   4.878   4.754   7.703 -0.0730 -0.1736  0.2354
 2455TIP3    H124552   4.803   4.792   7.747  1.3098  1.5910  1.1954
 2455TIP3    H224553   4.868   4.780   7.611  0.5631  2.2192  0.7786
 2456TIP3   OH224554   3.952   4.187   1.034  0.2797  0.1316  0.5769
 2456TIP3    H124555   4.014   4.192   0.961  1.5591 -0.4870  1.5933
 2456TIP3    H224556   3.998   4.228   1.107 -0.8227  0.3515  1.1710
 2457TIP3   OH224557   0.406   3.590   6.375 -0.1796 -0.2353 -0.3395
 2457TIP3    H124558   0.366   3.503   6.373 -0.9300  0.1076 -0.6035
 2457TIP3    H224559   0.394   3.620   6.466  2.1233 -1.3109  0.4044
 2458TIP3   OH224560   5.637   5.852   7.031  0.1058 -0.2534  0.2368
 2458TIP3    H124561   5.665   5.929   7.081  0.8800 -2.1548  2.9299
 2458TIP3    H224562   5.541   5.860   7.028  0.0897  0.3047  1.4576
 2459TIP3   OH224563   1.070   4.662   5.179 -0.0149 -0.2482  0.2476
 2459TIP3    H124564   1.012   4.689   5.251  0.5314  0.8115  0.3129
 2459TIP3    H224565   1.015   4.668   5.101 -0.2601 -0.1589  0.4252
 2460TIP3   OH224566   6.075   0.750   1.317  0.1297 -0.0982  0.3771
 2460TIP3    H124567   6.058   0.843   1.328  0.2112 -0.3470  3.5365
 2460TIP3    H224568   6.165   0.745   1.285  0.5986  0.9193  1.4553
 2461TIP3   OH224569   2.253   0.933   6.900 -0.1777  0.9171  0.1248
 2461TIP3    H124570   2.168   0.960   6.934 -0.5627 -1.3049  1.1474
 2461TIP3    H224571   2.250   0.837   6.903  2.3466  0.7742  0.1549
 2462TIP3   OH224572   0.246   6.009   6.858  0.2378 -0.5143  0.3048
 2462TIP3    H124573   0.301   5.931   6.855 -0.1261 -0.7408 -1.3184
 2462TIP3    H224574   0.297   6.075   6.811  0.4025  0.1589  1.3932
 2463TIP3   OH224575   1.082   0.445   0.098  0.3987 -0.0459 -0.2285
 2463TIP3    H124576   1.171   0.433   0.131 -0.1732  1.2566  1.9766
 2463TIP3    H224577   1.025   0.412   0.168 -0.9306 -2.2568 -2.1976
 2464TIP3   OH224578   2.436   2.246   0.379 -0.7106  0.3402  0.1731
 2464TIP3    H124579   2.357   2.202   0.410 -0.0304 -0.0508  1.4757
 2464TIP3    H224580   2.491   2.175   0.346 -0.2462  0.3825  0.8254
 2465TIP3   OH224581   1.985   2.080   3.951 -0.3841 -0.0620  0.2241
 2465TIP3    H124582   2.040   2.028   4.009 -0.6564 -0.9348 -0.2717
 2465TIP3    H224583   2.008   2.171   3.971 -0.1445 -0.3523  1.3553
 2466TIP3   OH224584   5.435   0.359   7.337  0.3239 -0.4366  0.1733
 2466TIP3    H124585   5.463   0.376   7.427 -0.5437 -4.2255  1.3058
 2466TIP3    H224586   5.344   0.390   7.334  0.3515 -0.3031  0.6064
 2467TIP3   OH224587   5.413   1.047   6.015 -0.1738 -0.7395 -0.3209
 2467TIP3    H124588   5.451   0.970   6.057 -1.3633 -0.9601  0.4104
 2467TIP3    H224589   5.364   1.012   5.940 -2.4584 -1.0208  1.1877
 2468TIP3   OH224590   6.175   5.131   7.073  0.6175  0.3372  0.7130
 2468TIP3    H124591   6.145   5.212   7.114 -0.7500  0.4639 -0.4400
 2468TIP3    H224592   6.130   5.062   7.121 -0.8923  0.4786 -0.4389
 2469TIP3   OH224593   3.274   6.206   6.829  0.0855  0.2099 -0.4694
 2469TIP3    H124594   3.220   6.166   6.761 -0.2644 -0.2087  0.0479
 2469TIP3    H224595   3.241   6.295   6.837  1.4596  0.9156 -2.2628
 2470TIP3   OH224596   3.148   1.700   0.300 -0.0394 -0.3356  0.4420
 2470TIP3    H124597   3.116   1.758   0.370 -1.4001 -0.4656 -0.0508
 2470TIP3    H224598   3.231   1.666   0.334  0.8427  1.9066  0.7396
 2471TIP3   OH224599   4.558   3.244   6.127  0.4861 -0.2905  0.3168
 2471TIP3    H124600   4.561   3.286   6.041 -0.5487 -2.0081 -0.6111
 2471TIP3    H224601   4.628   3.286   6.177  1.5890  0.2504 -1.5903
 2472TIP3   OH224602   4.051   2.655   2.469  0.1038 -0.0395 -0.3127
 2472TIP3    H124603   4.051   2.593   2.396 -2.0522 -0.1047 -0.3181
 2472TIP3    H224604   4.081   2.737   2.431 -1.2625 -0.0007 -1.3873
 2473TIP3   OH224605   5.232   0.566   7.548  0.0353  0.1079 -0.0253
 2473TIP3    H124606   5.192   0.542   7.465 -0.9408 -0.9462  0.7222
 2473TIP3    H224607   5.202   0.499   7.610  1.1313  0.5906  1.0692
 2474TIP3   OH224608   6.513   1.249   1.989 -0.5048  0.0901 -0.5338
 2474TIP3    H124609   6.466   1.330   1.969  1.0779  1.0692 -0.4174
 2474TIP3    H224610   6.601   1.263   1.955  0.2529 -0.9508  0.8864
 2475TIP3   OH224611   6.257   2.192   0.548 -0.1322  0.5569 -0.2917
 2475TIP3    H124612   6.188   2.236   0.498  0.6225  1.4706 -0.5634
 2475TIP3    H224613   6.335   2.245   0.532  0.9295 -1.1116 -0.9602
 2476TIP3   OH224614   6.381   5.463   0.426  0.6890 -0.1501  0.8272
 2476TIP3    H124615   6.446   5.400   0.396  0.7700 -0.1899  1.0858
 2476TIP3    H224616   6.420   5.548   0.408 -0.4515 -0.0743 -1.9258
 2477TIP3   OH224617   3.314   1.592   0.828  0.1029 -0.3240 -0.1514
 2477TIP3    H124618   3.339   1.647   0.753 -0.3982 -0.3126 -0.3130
 2477TIP3    H224619   3.395   1.581   0.878  0.6191 -0.9500 -1.0950
 2478TIP3   OH224620   0.702   4.512   6.361 -0.8649 -0.6214 -0.1549
 2478TIP3    H124621   0.776   4.457   6.387 -1.1952 -0.2936  1.6171
 2478TIP3    H224622   0.737   4.570   6.294  0.4712 -0.5110  0.6056
 2479TIP3   OH224623   5.249   4.807   7.585  0.5222  0.4780 -0.6125
 2479TIP3    H124624   5.200   4.725   7.588 -0.0132  0.7562 -1.3812
 2479TIP3    H224625   5.236   4.839   7.495  1.8595  0.7150 -0.7336
 2480TIP3   OH224626   3.508   1.481   7.433 -0.4925 -0.2385  0.8556
 2480TIP3    H124627   3.509   1.436   7.517  1.2007 -1.1223  0.3957
 2480TIP3    H224628   3.484   1.572   7.455  1.7259  0.0113  2.5636
 2481TIP3   OH224629   4.724   3.975   6.950  0.0360  0.2042  0.5774
 2481TIP3    H124630   4.780   3.914   6.901  0.1409 -0.6211  1.6747
 2481TIP3    H224631   4.643   3.926   6.964 -1.3609  1.6713 -1.6866
 2482TIP3   OH224632   5.421   5.324   6.156 -0.7447 -0.0446  0.0989
 2482TIP3    H124633   5.423   5.351   6.247 -0.3060  1.0425 -0.2134
 2482TIP3    H224634   5.439   5.230   6.158 -0.0803  0.0936  1.0733
 2483TIP3   OH224635   2.182   1.737   1.477  0.0622  0.2666 -0.2968
 2483TIP3    H124636   2.110   1.723   1.416 -0.5055  2.5252 -0.2228
 2483TIP3    H224637   2.247   1.787   1.427  0.8880 -0.3893  0.1035
 2484TIP3   OH224638   0.212   5.719   7.239  0.0276  0.2108 -0.2577
 2484TIP3    H124639   0.125   5.687   7.263 -0.4502 -0.2157 -2.3561
 2484TIP3    H224640   0.195   5.798   7.187  0.8648 -0.1692 -1.1356
 2485TIP3   OH224641   2.789   4.248   0.498  0.0599 -0.7037  0.1391
 2485TIP3    H124642   2.723   4.277   0.561  0.4148 -0.6779  0.5058
 2485TIP3    H224643   2.757   4.279   0.413 -1.2541 -2.1370  0.0581
 2486TIP3   OH224644   1.024   2.300   5.558  0.2578 -0.0624  0.0458
 2486TIP3    H124645   1.062   2.359   5.623 -2.3905 -0.0819  1.7766
 2486TIP3    H224646   1.019   2.351   5.477  2.4706  0.3761  0.1435
 2487TIP3   OH224647   6.245   0.171   7.007  0.3644  0.1061 -0.1344
 2487TIP3    H124648   6.204   0.252   7.036  1.8427  0.2677  1.6543
 2487TIP3    H224649   6.315   0.155   7.070  0.1025 -2.5987 -0.4215
 2488TIP3   OH224650   2.317   1.705   0.633 -0.4685  0.0462 -0.2901
 2488TIP3    H124651   2.314   1.794   0.600  1.1332 -0.1013 -0.9267
 2488TIP3    H224652   2.396   1.668   0.595 -0.1464 -1.0940  1.3653
 2489TIP3   OH224653   0.095   1.891   6.403  0.2744  0.5806 -0.2026
 2489TIP3    H124654   0.148   1.915   6.327 -2.1729  0.6213 -2.0338
 2489TIP3    H224655   0.041   1.819   6.372 -1.0820  0.8641  1.3883
 2490TIP3   OH224656   4.455   1.032   0.386 -0.0813 -0.0045 -0.0956
 2490TIP3    H124657   4.363   1.006   0.382  0.3207 -1.8706  1.2797
 2490TIP3    H224658   4.498   0.974   0.323 -0.0003  2.0896 -2.1301
 2491TIP3   OH224659   4.055   0.698   0.747 -0.2135 -0.2963 -0.1982
 2491TIP3    H124660   4.149   0.710   0.731 -0.3132  0.1621 -0.4475
 2491TIP3    H224661   4.017   0.691   0.659 -0.4146 -0.4731 -0.0972
 2492TIP3   OH224662   5.974   1.259   7.689  0.1327 -0.2450 -0.0507
 2492TIP3    H124663   5.999   1.263   7.597 -0.1859 -0.2757 -0.1392
 2492TIP3    H224664   6.034   1.195   7.728 -1.2160 -1.9787 -0.7158
 2493TIP3   OH224665   3.328   6.429   5.725  0.5040 -0.3630 -0.4159
 2493TIP3    H124666   3.268   6.420   5.651 -2.0117 -1.2102  1.5705
 2493TIP3    H224667   3.361   6.518   5.719 -1.4335  0.3541 -1.3269
 2494TIP3   OH224668   0.437   5.002   7.196  0.0430 -0.4595  0.0124
 2494TIP3    H124669   0.493   5.066   7.240 -0.3509 -0.9398  1.2432
 2494TIP3    H224670   0.498   4.943   7.152  0.5547 -1.2049  1.6547
 2495TIP3   OH224671   1.373   0.889   5.252  0.0325  0.5746 -0.1053
 2495TIP3    H124672   1.345   0.976   5.224 -0.0763  0.6695  0.2900
 2495TIP3    H224673   1.462   0.880   5.217  0.2285  1.0370  0.2664
 2496TIP3   OH224674   1.446   3.430   7.316 -0.1046  0.2223 -0.1490
 2496TIP3    H124675   1.409   3.514   7.290 -1.3015 -0.8020 -1.8933
 2496TIP3    H224676   1.527   3.423   7.265  0.0874  0.3853  0.1304
 2497TIP3   OH224677   5.945   3.412   6.197 -0.5587 -0.0474 -0.3319
 2497TIP3    H124678   6.026   3.365   6.177  0.0790  1.6171 -1.9677
 2497TIP3    H224679   5.897   3.414   6.114 -1.3352  0.6950  0.1176
 2498TIP3   OH224680   3.904   0.749   1.165  0.3326  0.5706  0.3226
 2498TIP3    H124681   3.840   0.795   1.219 -0.3527  0.7497 -0.6308
 2498TIP3    H224682   3.865   0.664   1.147  0.4217  0.6227 -0.1382
 2499TIP3   OH224683   3.997   6.541   1.059  1.0588  0.0435  0.1187
 2499TIP3    H124684   4.037   6.618   1.099  1.2813  0.4593 -0.8806
 2499TIP3    H224685   3.981   6.566   0.968  2.4752 -1.5686 -0.6293
 2500TIP3   OH224686   6.170   5.687   6.130 -0.1539  0.6987 -0.0371
 2500TIP3    H124687   6.260   5.667   6.103  0.2759  0.7412  1.2549
 2500TIP3    H224688   6.117   5.671   6.052  0.7199 -1.2444 -0.3076
 2501TIP3   OH224689   3.045   0.561   1.939 -0.0703  0.4294 -0.0467
 2501TIP3    H124690   3.125   0.581   1.890 -1.2014  1.3913 -1.5934
 2501TIP3    H224691   3.071   0.490   1.998  2.0341  1.0161 -0.1674
 2502TIP3   OH224692   1.762   3.846   5.648  0.0568 -0.1971 -0.0902
 2502TIP3    H124693   1.685   3.799   5.616  1.6746 -1.9070 -1.7871
 2502TIP3    H224694   1.834   3.811   5.595  1.9261  1.6846  1.0759
 2503TIP3   OH224695   1.607   3.367   6.605 -0.2922  0.0580  0.1057
 2503TIP3    H124696   1.611   3.373   6.510  0.9205 -0.3897  0.1132
 2503TIP3    H224697   1.646   3.449   6.636 -0.1103 -0.0671  0.2120
 2504TIP3   OH224698   4.283   3.710   0.859 -0.2678  0.1615  0.1902
 2504TIP3    H124699   4.301   3.660   0.780 -0.7687  0.6372 -0.2277
 2504TIP3    H224700   4.364   3.705   0.909  0.4443  0.8339 -0.8793
 2505TIP3   OH224701   0.351   1.233   0.923  0.9078  0.3132  0.2149
 2505TIP3    H124702   0.287   1.299   0.948  0.7243 -0.3889  1.6760
 2505TIP3    H224703   0.373   1.254   0.832  0.9258  2.4271  0.6649
 2506TIP3   OH224704   4.247   0.960   1.290  0.0998  0.8726  0.1789
 2506TIP3    H124705   4.166   1.011   1.293 -0.3015  0.2566  0.1460
 2506TIP3    H224706   4.284   0.968   1.378 -0.0052  1.1492  0.1980
 2507TIP3   OH224707   2.961   4.699   1.459  0.4875  0.0329 -0.2897
 2507TIP3    H124708   2.894   4.726   1.396 -0.3234  0.1464  0.5796
 2507TIP3    H224709   3.043   4.701   1.411  0.3687  3.2027 -0.5479
 2508TIP3   OH224710   4.685   2.132   6.337  0.8138  0.2797 -0.2216
 2508TIP3    H124711   4.624   2.058   6.337  1.2876 -0.1774  1.6781
 2508TIP3    H224712   4.644   2.198   6.282 -1.0895 -0.2674  0.4723
 2509TIP3   OH224713   5.575   5.061   0.648 -0.2928 -0.5866  0.0743
 2509TIP3    H124714   5.650   5.056   0.707 -0.3067 -0.6298  0.0877
 2509TIP3    H224715   5.589   4.991   0.584 -0.8962 -1.3319  0.7363
 2510TIP3   OH224716   1.793   1.652   1.082 -0.2365 -0.3363  0.4576
 2510TIP3    H124717   1.776   1.598   1.005 -1.9767 -0.3857  0.8350
 2510TIP3    H224718   1.720   1.634   1.141 -0.8299  2.2918  0.6705
 2511TIP3   OH224719   5.336   1.665   1.443 -0.3447 -0.2482 -0.2135
 2511TIP3    H124720   5.354   1.664   1.537 -0.0666  2.4559 -0.1624
 2511TIP3    H224721   5.246   1.633   1.436  0.1122 -1.8834  0.7861
 2512TIP3   OH224722   3.139   4.196   0.973 -0.7324 -0.5663 -0.4151
 2512TIP3    H124723   3.221   4.221   0.932  0.1095  0.3425  1.6852
 2512TIP3    H224724   3.150   4.103   0.995  0.8669  0.1406  2.1734
 2513TIP3   OH224725   3.829   6.104   6.799 -0.6629 -0.4736 -0.2953
 2513TIP3    H124726   3.814   6.196   6.775 -0.0908 -0.3381 -0.1673
 2513TIP3    H224727   3.842   6.106   6.893  0.5495 -0.5096 -0.4475
 2514TIP3   OH224728   2.391   1.578   2.209 -0.1960 -0.0559  0.4348
 2514TIP3    H124729   2.405   1.574   2.115 -0.2182  3.1677  0.1640
 2514TIP3    H224730   2.296   1.589   2.219 -0.0103  1.7588  0.6057
 2515TIP3   OH224731   1.290   4.954   5.983  0.6317 -0.4259 -0.2602
 2515TIP3    H124732   1.200   4.976   5.957  1.1219  3.0504  0.4927
 2515TIP3    H224733   1.316   4.885   5.923 -2.2533 -0.9943 -1.0205
 2516TIP3   OH224734   5.720   5.672   7.660 -0.2939  0.2637 -0.1379
 2516TIP3    H124735   5.717   5.583   7.694 -1.2507  0.6148  0.7343
 2516TIP3    H224736   5.813   5.695   7.660 -0.1050 -0.4867  0.2709
 2517TIP3   OH224737   0.605   0.816   5.558 -0.1314 -0.6339 -0.5393
 2517TIP3    H124738   0.647   0.822   5.644  1.1087  1.6588 -1.2418
 2517TIP3    H224739   0.570   0.727   5.555 -1.1206 -0.4681  2.7370
 2518TIP3   OH224740   0.622   6.184   1.861 -0.7474 -0.0149  0.4023
 2518TIP3    H124741   0.596   6.196   1.769 -0.6779 -0.7973  0.2720
 2518TIP3    H224742   0.555   6.232   1.911 -0.4798  0.8682 -0.0716
 2519TIP3   OH224743   2.124   6.286   1.101 -0.0641 -0.1638 -0.2183
 2519TIP3    H124744   2.039   6.326   1.119  0.3546 -0.3668  2.6831
 2519TIP3    H224745   2.105   6.216   1.038 -2.0386 -0.1579  0.3082
 2520TIP3   OH224746   3.554   2.898   0.458  0.1557  0.1294 -0.4177
 2520TIP3    H124747   3.616   2.970   0.460  0.0165  0.2436 -0.0756
 2520TIP3    H224748   3.547   2.870   0.550 -3.1803  2.6098  0.2902
 2521TIP3   OH224749   1.855   3.839   7.324  0.6105  0.4396  0.5651
 2521TIP3    H124750   1.813   3.861   7.241 -0.1101 -0.6228  0.6211
 2521TIP3    H224751   1.947   3.823   7.300  0.2189 -0.8263 -0.2369
 2522TIP3   OH224752   4.512   5.588   1.247 -0.7836 -0.1985  0.8061
 2522TIP3    H124753   4.529   5.581   1.153 -1.2921 -1.1435  0.7778
 2522TIP3    H224754   4.486   5.680   1.260  2.0833  0.7507  0.5096
 2523TIP3   OH224755   1.942   2.278   0.109 -0.4353 -0.5260 -0.6316
 2523TIP3    H124756   1.859   2.231   0.101 -0.3588 -0.7604 -0.1195
 2523TIP3    H224757   1.917   2.366   0.135 -0.5491 -0.4476 -0.9982
 2524TIP3   OH224758   2.055   0.668   0.181  0.4926 -0.0765 -0.3302
 2524TIP3    H124759   1.989   0.650   0.248  1.6916 -0.4911  0.7928
 2524TIP3    H224760   2.006   0.673   0.099 -0.5865 -3.4943 -0.0237
 2525TIP3   OH224761   3.496   6.116   0.077  0.7663  0.3731  0.4595
 2525TIP3    H124762   3.482   6.040   0.133 -1.3580  1.3800  1.4060
 2525TIP3    H224763   3.584   6.146   0.099  1.2475 -1.1793  0.8131
 2526TIP3   OH224764   2.710   6.106   6.439  1.6583  0.0903 -0.2270
 2526TIP3    H124765   2.687   6.083   6.529  0.5500  0.8813 -0.2862
 2526TIP3    H224766   2.711   6.202   6.439  1.7294  0.0923 -1.0342
 2527TIP3   OH224767   2.600   0.793   1.319  0.9841 -0.1374  0.1573
 2527TIP3    H124768   2.546   0.762   1.391  1.8741 -2.2430 -0.0141
 2527TIP3    H224769   2.539   0.798   1.245  0.1306  1.7693  0.9263
 2528TIP3   OH224770   2.949   2.501   2.320 -0.2425  0.2111 -0.1697
 2528TIP3    H124771   2.986   2.571   2.266  0.3634  0.2708  0.3147
 2528TIP3    H224772   2.869   2.476   2.274  0.3105  0.1914 -1.1616
 2529TIP3   OH224773   3.060   3.003   1.088  0.3174 -0.6319 -0.2543
 2529TIP3    H124774   3.069   2.914   1.121  1.2707 -0.2367  0.6047
 2529TIP3    H224775   2.976   3.034   1.122 -0.0954 -1.2434 -0.6972
 2530TIP3   OH224776   5.895   4.204   7.042  0.4527 -0.1335  0.6105
 2530TIP3    H124777   5.859   4.117   7.025 -0.3326  0.4898 -1.2646
 2530TIP3    H224778   5.832   4.245   7.101  0.1381 -0.3940  0.4605
 2531TIP3   OH224779   5.828   0.757   6.737 -0.2508 -0.3557  0.0557
 2531TIP3    H124780   5.919   0.758   6.768 -0.0488 -1.3907 -0.4262
 2531TIP3    H224781   5.832   0.707   6.655 -0.9034  1.5485 -1.1973
 2532TIP3   OH224782   0.906   5.213   7.541  0.4462  0.6032 -0.3377
 2532TIP3    H124783   0.980   5.270   7.520 -0.0398  2.1596  1.8826
 2532TIP3    H224784   0.834   5.247   7.488  0.9274 -0.0630 -1.4706
 2533TIP3   OH224785   0.370   2.053   0.610 -0.3876 -0.1726  0.6417
 2533TIP3    H124786   0.328   2.113   0.548 -1.5279 -0.8300  0.7485
 2533TIP3    H224787   0.326   2.070   0.693  0.4198 -0.0148  1.0417
 2534TIP3   OH224788   4.462   0.245   7.016  0.7888  0.0933  0.0524
 2534TIP3    H124789   4.370   0.259   6.996  0.0454 -1.6868  1.9299
 2534TIP3    H224790   4.491   0.179   6.953  0.8329  0.7012 -0.5794
 2535TIP3   OH224791   3.268   4.725   7.332 -0.0867 -0.3972  0.1607
 2535TIP3    H124792   3.173   4.724   7.327 -0.0918 -2.1250 -0.2451
 2535TIP3    H224793   3.295   4.794   7.272 -1.0737  0.3409  0.5417
 2536TIP3   OH224794   0.008   0.767   7.528  0.2795 -0.3066 -0.0876
 2536TIP3    H124795  -0.083   0.795   7.542  0.6773  0.9384  0.1274
 2536TIP3    H224796   0.051   0.843   7.491  1.4739 -0.5672  0.7004
 2537TIP3   OH224797   5.786   0.009   7.368 -0.0687  0.1037  0.6798
 2537TIP3    H124798   5.878   0.034   7.375  0.7371 -2.0019 -1.2063
 2537TIP3    H224799   5.767  -0.036   7.451  0.4064  1.0479  1.3179
 2538TIP3   OH224800   0.340   0.146   5.413  0.3241  0.0293  0.5688
 2538TIP3    H124801   0.334   0.241   5.419  4.0106  0.4180  0.8867
 2538TIP3    H224802   0.409   0.131   5.348 -0.0727 -2.4359  0.6276
 2539TIP3   OH224803   5.842   0.519   1.841 -0.5550  0.4218 -0.0460
 2539TIP3    H124804   5.895   0.595   1.816 -1.4780  1.0271 -0.1996
 2539TIP3    H224805   5.789   0.550   1.914 -2.4409  0.5881 -1.4239
 2540TIP3   OH224806   2.918   0.164   7.107  0.0258  0.0617 -0.1485
 2540TIP3    H124807   2.894   0.138   7.018 -2.8405 -0.2262  0.6023
 2540TIP3    H224808   2.863   0.241   7.125  0.7986  0.3187  1.2425
 2541TIP3   OH224809   2.240   2.337   0.732 -0.3917  0.4389  0.4806
 2541TIP3    H124810   2.330   2.369   0.742 -1.0400  2.0801  1.6795
 2541TIP3    H224811   2.197   2.364   0.814 -1.7721 -1.0428  0.2820
 2542TIP3   OH224812   4.360   2.577   6.406 -0.2390  0.0890 -0.2750
 2542TIP3    H124813   4.283   2.564   6.462  0.1030 -1.0539 -0.0344
 2542TIP3    H224814   4.424   2.618   6.464  0.4028 -1.8350  0.4864
 2543TIP3   OH224815   2.480   3.156   0.642 -0.8684 -0.5731 -0.3221
 2543TIP3    H124816   2.464   3.136   0.734 -1.1862  1.0586  0.0160
 2543TIP3    H224817   2.525   3.079   0.608 -1.7025 -1.6547  0.9229
 2544TIP3   OH224818   4.972   5.589   6.941 -0.0653  0.6243 -0.0839
 2544TIP3    H124819   4.888   5.548   6.922 -0.1215  1.4659 -1.8926
 2544TIP3    H224820   4.964   5.620   7.031 -0.0645 -3.0734  1.4043
 2545TIP3   OH224821   3.478   4.416   6.730 -0.0161  0.1660  0.5526
 2545TIP3    H124822   3.502   4.335   6.685  0.1755 -0.2503  1.3862
 2545TIP3    H224823   3.392   4.438   6.695 -1.2535 -1.7996  2.1217
 2546TIP3   OH224824   4.380   4.086   6.435  0.6193  1.1370 -0.5175
 2546TIP3    H124825   4.314   4.122   6.494  1.5094  0.2348  1.1358
 2546TIP3    H224826   4.333   4.020   6.384  0.3739 -0.3610  1.4724
 2547TIP3   OH224827   6.268   3.161   0.145  0.1295 -0.1467  0.1601
 2547TIP3    H124828   6.174   3.145   0.149 -0.4846  3.1490  2.5288
 2547TIP3    H224829   6.305   3.101   0.210 -0.4061 -0.8357 -0.1541
 2548TIP3   OH224830   3.830   6.107   6.528 -0.6343 -0.9672 -0.3291
 2548TIP3    H124831   3.905   6.135   6.475 -0.9800  0.1404 -0.2503
 2548TIP3    H224832   3.753   6.136   6.479 -1.0367 -2.1247 -0.4279
 2549TIP3   OH224833   4.011   4.673   0.952 -0.2678  0.0345 -0.2754
 2549TIP3    H124834   3.983   4.754   0.995 -0.2826 -0.8924  1.5688
 2549TIP3    H224835   3.971   4.604   1.004  2.4428 -1.2385  0.2918
 2550TIP3   OH224836   3.987   0.027   7.712  0.0457 -0.3703  0.0846
 2550TIP3    H124837   4.022   0.067   7.791 -0.6510 -0.0111  0.2128
 2550TIP3    H224838   4.064  -0.013   7.670  0.6510  0.5731  0.2629
 2551TIP3   OH224839   5.482   2.591   7.063  0.1062  0.0167  0.7603
 2551TIP3    H124840   5.435   2.526   7.011  1.5570 -2.0262  1.8428
 2551TIP3    H224841   5.421   2.612   7.135 -0.1834 -0.5901  0.7027
 2552TIP3   OH224842   0.490   6.170   7.088  0.1275  0.3731 -0.1700
 2552TIP3    H124843   0.451   6.236   7.031 -0.9149 -0.3739 -0.3555
 2552TIP3    H224844   0.572   6.147   7.046  0.8268  2.0080  0.2389
 2553TIP3   OH224845   5.957   2.222   1.319  0.4041  0.2485  0.0775
 2553TIP3    H124846   5.888   2.176   1.366 -0.2996  0.2969 -0.8615
 2553TIP3    H224847   5.927   2.222   1.228  2.3638 -1.0864 -0.6386
 2554TIP3   OH224848   2.111   0.850   6.098  0.6993 -0.2126  0.0317
 2554TIP3    H124849   2.017   0.842   6.117  0.6996 -0.2063  0.0358
 2554TIP3    H224850   2.121   0.816   6.009  0.7635 -0.6305  0.1982
 2555TIP3   OH224851   3.085   5.627   0.503 -0.3673 -0.3055  0.4311
 2555TIP3    H124852   3.000   5.612   0.462 -0.2523 -1.9875  0.7322
 2555TIP3    H224853   3.073   5.707   0.555 -1.2561  0.4093 -0.8269
 2556TIP3   OH224854   4.542   0.720   7.544 -0.2684  0.2850 -0.7705
 2556TIP3    H124855   4.507   0.763   7.622 -2.2690 -0.7179 -1.0501
 2556TIP3    H224856   4.608   0.659   7.579 -0.2409  0.7321 -0.0017
 2557TIP3   OH224857   3.770   0.108   0.416  0.6838 -0.6401  0.1540
 2557TIP3    H124858   3.702   0.099   0.349  0.9530  0.7566 -0.3451
 2557TIP3    H224859   3.839   0.047   0.389  0.3305 -0.8710 -0.2404
 2558TIP3   OH224860   3.720   0.771   7.367  0.2325 -0.0812  0.3416
 2558TIP3    H124861   3.677   0.706   7.422 -0.9976 -0.6043 -1.1681
 2558TIP3    H224862   3.754   0.721   7.293 -0.3191  0.9185 -0.6173
 2559TIP3   OH224863   1.707   4.487   0.837 -0.0099 -0.4667  0.3227
 2559TIP3    H124864   1.690   4.537   0.757 -0.0915 -0.1304  0.5471
 2559TIP3    H224865   1.797   4.508   0.861  0.4227 -1.5062 -0.3381
 2560TIP3   OH224866   6.093   1.943   6.068 -0.1339 -0.8665 -0.1820
 2560TIP3    H124867   6.164   1.894   6.027  0.3290  0.7864 -1.4642
 2560TIP3    H224868   6.124   2.034   6.068 -1.5507 -0.3475  0.8055
 2561TIP3   OH224869   1.340   2.216   1.855  0.5719 -0.0020  0.1994
 2561TIP3    H124870   1.404   2.207   1.784  0.7594 -0.4572  0.4220
 2561TIP3    H224871   1.270   2.270   1.818  0.6346 -0.2928 -0.3587
 2562TIP3   OH224872   5.132   1.978   0.124 -0.1778 -0.3465 -0.3461
 2562TIP3    H124873   5.210   2.021   0.160  1.3627 -2.1161 -1.3675
 2562TIP3    H224874   5.086   1.945   0.201 -1.3594  2.8450  0.4652
 2563TIP3   OH224875   3.392   2.180   1.928 -0.6247  0.8455 -0.3229
 2563TIP3    H124876   3.477   2.202   1.967 -1.2098  0.5453  1.2264
 2563TIP3    H224877   3.369   2.096   1.969 -0.8583 -0.0022 -2.0927
 2564TIP3   OH224878   5.590   5.335   1.922  0.2106  0.1074  0.1265
 2564TIP3    H124879   5.675   5.291   1.927 -0.3821 -1.0419  0.6908
 2564TIP3    H224880   5.530   5.266   1.892  0.0086  1.6709 -3.5699
 2565TIP3   OH224881   6.638   4.691   7.351 -0.6305 -0.5833 -0.3112
 2565TIP3    H124882   6.548   4.723   7.357 -0.2154  0.3220  2.3921
 2565TIP3    H224883   6.673   4.731   7.272 -2.5880 -1.0066 -1.4439
 2566TIP3   OH224884   0.373   0.148   6.304  0.3629 -0.3739  0.0623
 2566TIP3    H124885   0.459   0.128   6.341  0.3266  0.5233  0.6571
 2566TIP3    H224886   0.372   0.102   6.220  1.1677 -0.9206  0.3406
 2567TIP3   OH224887   4.550   0.242   1.016  0.1246 -0.2387 -0.5277
 2567TIP3    H124888   4.491   0.188   0.963 -0.7235  0.4498 -0.3041
 2567TIP3    H224889   4.625   0.185   1.034 -0.4649 -1.1304 -0.8224
 2568TIP3   OH224890   1.366   3.243   0.715 -0.1297  0.3223 -0.4144
 2568TIP3    H124891   1.271   3.231   0.709 -0.3318  0.9337  1.1304
 2568TIP3    H224892   1.392   3.279   0.630 -1.6015  2.1206 -0.1411
 2569TIP3   OH224893   1.541   6.492   0.376 -0.5617 -0.2650 -0.6562
 2569TIP3    H124894   1.483   6.568   0.380 -2.7368 -1.7594 -1.8962
 2569TIP3    H224895   1.561   6.481   0.283 -0.3298 -1.2150 -0.5105
 2570TIP3   OH224896   2.992   3.872   5.741 -0.1037 -0.3010  0.1089
 2570TIP3    H124897   2.924   3.916   5.690 -1.4723 -0.6891  1.4848
 2570TIP3    H224898   3.037   3.942   5.788 -2.6499 -0.1929  2.7517
 2571TIP3   OH224899   4.561   2.916   1.151 -0.0227 -0.4970 -0.1622
 2571TIP3    H124900   4.579   2.827   1.181  0.5514  0.0062  1.0697
 2571TIP3    H224901   4.641   2.943   1.107 -0.1051 -0.5061 -0.3166
 2572TIP3   OH224902   6.284   5.942   1.522 -0.3246  0.0632  0.1970
 2572TIP3    H124903   6.371   5.981   1.511 -0.5825  0.4868 -0.4056
 2572TIP3    H224904   6.223   6.016   1.512 -0.8501 -0.5391 -1.4297
 2573TIP3   OH224905   1.105   2.833   6.519 -0.2843  0.2136  0.3684
 2573TIP3    H124906   1.146   2.876   6.443 -1.9737  0.1372 -0.6306
 2573TIP3    H224907   1.163   2.760   6.539  0.6979  0.7939 -0.2262
 2574TIP3   OH224908   1.245   1.498   0.747 -0.7602 -0.4662  0.7389
 2574TIP3    H124909   1.218   1.590   0.747  1.4677  0.2667  0.2758
 2574TIP3    H224910   1.206   1.461   0.826 -0.8530  1.1835  1.5086
 2575TIP3   OH224911   1.256   1.789   6.244 -0.2495 -0.2560  0.1375
 2575TIP3    H124912   1.294   1.707   6.275  0.5609  0.2917  0.6266
 2575TIP3    H224913   1.260   1.783   6.148 -2.3715 -1.7761  0.0894
 2576TIP3   OH224914   3.637   3.897   0.669 -0.3747  0.4608 -0.0436
 2576TIP3    H124915   3.595   3.847   0.599 -2.1824  1.0116  0.6177
 2576TIP3    H224916   3.682   3.831   0.722 -0.7622 -0.1965 -0.5181
 2577TIP3   OH224917   3.633   5.935   5.456 -0.2015 -0.0460 -0.1423
 2577TIP3    H124918   3.555   5.984   5.483  0.7223  1.5642 -0.2398
 2577TIP3    H224919   3.607   5.843   5.460 -2.4024  0.4725 -1.1152
 2578TIP3   OH224920   3.250   1.390   0.197 -0.2946  0.4115 -0.4427
 2578TIP3    H124921   3.248   1.458   0.129  1.2717  0.2172 -0.7174
 2578TIP3    H224922   3.327   1.410   0.249 -2.3045  1.5311  2.3997
 2579TIP3   OH224923   1.179   6.056   1.262 -0.6818  0.1180  0.0693
 2579TIP3    H124924   1.086   6.039   1.244 -0.6049  1.3174 -1.6470
 2579TIP3    H224925   1.183   6.151   1.276 -0.1343 -0.2514  3.1327
 2580TIP3   OH224926   5.853   1.884   5.663 -0.0720 -0.1128 -0.2965
 2580TIP3    H124927   5.948   1.893   5.651 -0.0354 -0.3700 -0.2035
 2580TIP3    H224928   5.825   1.830   5.590 -0.3522  1.0490 -1.0795
 2581TIP3   OH224929   6.183   1.222   7.187 -0.5541 -0.2797  0.2962
 2581TIP3    H124930   6.215   1.297   7.235 -2.6838  1.4531 -0.7928
 2581TIP3    H224931   6.140   1.167   7.253  0.2264 -0.0927  0.9667
 2582TIP3   OH224932   3.407   5.890   1.659 -0.6911 -0.0394  0.4158
 2582TIP3    H124933   3.396   5.808   1.707  0.7263 -0.1553  0.6059
 2582TIP3    H224934   3.483   5.931   1.700 -0.7181  0.8455 -0.3875
 2583TIP3   OH224935   5.557   6.149   7.265  0.1952  0.0019 -0.3366
 2583TIP3    H124936   5.497   6.076   7.281  1.4789 -1.4567 -1.7691
 2583TIP3    H224937   5.594   6.169   7.351 -1.9414  0.6455  0.4997
 2584TIP3   OH224938   2.145   1.005   1.952  0.0900  0.0340 -0.1672
 2584TIP3    H124939   2.175   1.029   1.864  1.4906  0.7503  0.4813
 2584TIP3    H224940   2.211   0.944   1.984 -1.0162 -1.1352 -0.0204
 2585TIP3   OH224941   0.909   5.358   0.268 -0.0944 -0.4294 -0.3698
 2585TIP3    H124942   0.997   5.328   0.244  0.1502  0.6612 -0.9401
 2585TIP3    H224943   0.924   5.426   0.334 -0.5826 -0.9925  0.3388
 2586TIP3   OH224944   6.383   3.397   6.934 -0.0168 -0.2402  0.3817
 2586TIP3    H124945   6.299   3.408   6.978  0.3658 -0.2754  1.1372
 2586TIP3    H224946   6.425   3.483   6.940  0.0298 -0.2371  0.0555
 2587TIP3   OH224947   4.541   0.766   5.781  0.0068  0.2093  0.0310
 2587TIP3    H124948   4.622   0.753   5.830  0.4323 -0.7400 -0.8945
 2587TIP3    H224949   4.560   0.837   5.720  0.0257  0.2037  0.0308
 2588TIP3   OH224950   5.489   3.993   5.985  0.2093 -0.1802  0.8106
 2588TIP3    H124951   5.431   3.923   5.957 -0.3269  0.2162  0.9050
 2588TIP3    H224952   5.450   4.073   5.948 -0.0386  0.2428  1.9409
 2589TIP3   OH224953   0.680   6.395   7.388  0.7157  0.2573  0.2924
 2589TIP3    H124954   0.665   6.426   7.298 -0.5860 -1.0461  0.0124
 2589TIP3    H224955   0.757   6.339   7.381  0.6557  0.2054 -0.0088
 2590TIP3   OH224956   1.078   2.077   1.318  0.5386 -0.7925  0.3550
 2590TIP3    H124957   1.120   1.998   1.285 -1.2400 -1.0309 -1.5314
 2590TIP3    H224958   1.087   2.140   1.247 -1.1393 -0.4668  0.3952
 2591TIP3   OH224959   5.818   5.315   0.872 -0.3317  0.9411 -0.0254
 2591TIP3    H124960   5.896   5.333   0.820 -0.5032  1.5375 -0.0777
 2591TIP3    H224961   5.809   5.220   0.870 -0.2312  0.9473 -0.9355
 2592TIP3   OH224962   5.622   5.130   7.198  0.5591 -0.1124 -0.1281
 2592TIP3    H124963   5.567   5.057   7.170  0.8841 -1.5081  2.5808
 2592TIP3    H224964   5.563   5.205   7.200 -0.8052 -1.1707  0.8628
 2593TIP3   OH224965   3.818   5.840   6.507 -0.2133  0.6947 -0.0545
 2593TIP3    H124966   3.753   5.837   6.437  1.3016 -0.6954 -1.5173
 2593TIP3    H224967   3.870   5.760   6.494  0.8609  1.0028  1.9456
 2594TIP3   OH224968   5.424   1.927   2.500 -0.0462  0.2830  0.0039
 2594TIP3    H124969   5.404   1.848   2.449  0.0080  0.5649 -0.4505
 2594TIP3    H224970   5.515   1.947   2.479  0.2796 -0.1551  0.9550
 2595TIP3   OH224971   2.584   1.373   1.130 -0.1418  0.0030 -0.2896
 2595TIP3    H124972   2.518   1.416   1.077  0.7450  2.0599  0.1923
 2595TIP3    H224973   2.667   1.413   1.104  0.4920  0.0248  1.5727
 2596TIP3   OH224974   3.634   5.961   6.659 -0.6904  0.5877 -0.2953
 2596TIP3    H124975   3.573   5.996   6.725 -0.0495  2.3204 -0.5593
 2596TIP3    H224976   3.578   5.927   6.590 -1.3732 -0.8938  0.9341
 2597TIP3   OH224977   3.391   3.786   6.202 -0.1130  0.3206 -0.3236
 2597TIP3    H124978   3.373   3.855   6.138  0.2430 -1.5848 -2.6029
 2597TIP3    H224979   3.309   3.737   6.207 -0.1626  0.4857  0.8050
 2598TIP3   OH224980   2.786   4.848   5.934 -0.3590 -0.2173  0.1202
 2598TIP3    H124981   2.807   4.801   5.853 -0.9606  1.5741 -1.1483
 2598TIP3    H224982   2.693   4.834   5.946 -0.0697 -1.4107  1.1792
 2599TIP3   OH224983   0.003   0.630   7.750 -0.2866 -0.2295 -0.4830
 2599TIP3    H124984   0.011   0.691   7.676 -1.0569  0.0398 -0.3551
 2599TIP3    H224985   0.087   0.635   7.795  0.3623 -0.7348 -1.5970
 2600TIP3   OH224986   4.073   5.435   7.276 -0.4735  0.1518 -0.5508
 2600TIP3    H124987   4.150   5.387   7.306 -0.2639  1.7443  1.7012
 2600TIP3    H224988   4.033   5.378   7.211  1.9953 -1.1935 -1.0074
 2601TIP3   OH224989   3.979   4.976   7.544  0.0333 -0.5676 -0.1677
 2601TIP3    H124990   4.065   4.994   7.506  0.3548 -0.2526  0.6756
 2601TIP3    H224991   3.994   4.980   7.639 -0.6252 -1.8672  0.0062
 2602TIP3   OH224992   1.542   2.104   5.841 -0.0934  0.1182  0.0940
 2602TIP3    H124993   1.577   2.150   5.764 -0.5118  0.6821  0.2299
 2602TIP3    H224994   1.449   2.128   5.843  0.1950  1.2447  1.5587
 2603TIP3   OH224995   1.164   2.994   7.704 -0.1099 -0.4464 -0.3848
 2603TIP3    H124996   1.090   2.979   7.645 -1.1263  0.6780  0.5765
 2603TIP3    H224997   1.137   2.956   7.787 -0.0756  0.9568  0.2826
 2604TIP3   OH224998   2.217   3.602   7.526 -0.3298  0.2678 -0.2822
 2604TIP3    H124999   2.221   3.603   7.430 -0.2685 -3.2722 -0.4468
 2604TIP3    H225000   2.125   3.585   7.546 -0.2523  0.5120  0.2980
 2605TIP3   OH225001   5.096   2.692   6.789  0.0516  0.0524  0.6803
 2605TIP3    H125002   5.116   2.676   6.882  1.2545 -0.3441  0.3737
 2605TIP3    H225003   5.002   2.678   6.782  0.2745 -2.2075  1.4210
 2606TIP3   OH225004   5.865   4.437   1.353 -0.9269 -0.2507  0.0817
 2606TIP3    H125005   5.797   4.496   1.386  0.5601  0.0504  2.8906
 2606TIP3    H225006   5.944   4.491   1.350 -0.3136 -1.1555 -1.0721
 2607TIP3   OH225007   4.367   1.338   1.658 -0.0859 -0.4708 -0.4604
 2607TIP3    H125008   4.448   1.325   1.706 -0.3038  0.2516  0.1165
 2607TIP3    H225009   4.304   1.369   1.724 -0.6231 -0.3029 -1.0373
 2608TIP3   OH225010   4.206   6.425   7.620 -0.2241 -0.3004 -0.6934
 2608TIP3    H125011   4.275   6.359   7.614 -0.5409 -0.7175  0.1488
 2608TIP3    H225012   4.131   6.386   7.575 -0.0508 -0.0197 -1.2370
 2609TIP3   OH225013   4.279   4.703   7.054  0.0860 -0.0555 -0.3408
 2609TIP3    H125014   4.258   4.609   7.059  0.8620 -0.1779  0.9196
 2609TIP3    H225015   4.275   4.734   7.144  2.0432  0.6153 -0.4426
 2610TIP3   OH225016   2.530   0.098   7.718 -0.0265  0.6581 -1.0048
 2610TIP3    H125017   2.463   0.117   7.785 -0.4192 -1.9378 -0.5642
 2610TIP3    H225018   2.483   0.052   7.649  1.2351 -1.1727 -0.7195
 2611TIP3   OH225019   5.976   1.850   6.586  0.0844  0.0457 -0.4363
 2611TIP3    H125020   6.007   1.929   6.630 -1.2962  0.9330 -0.9860
 2611TIP3    H225021   5.995   1.865   6.494  3.6915 -2.1440 -0.2074
 2612TIP3   OH225022   3.235   4.645   0.100  0.5143 -0.1469  0.2737
 2612TIP3    H125023   3.303   4.619   0.162 -1.1056  0.0501  2.2457
 2612TIP3    H225024   3.258   4.601   0.018  1.1844 -2.8202  1.7926
 2613TIP3   OH225025   2.483   2.519   0.347  0.7852 -0.5557 -0.4261
 2613TIP3    H125026   2.462   2.438   0.395 -1.9555  0.2241 -0.1051
 2613TIP3    H225027   2.445   2.505   0.260 -0.2673  0.5487 -0.1752
 2614TIP3   OH225028   4.421   4.471   7.424  0.0685 -0.7808  0.4425
 2614TIP3    H125029   4.401   4.431   7.509 -1.7696 -0.4524  0.1959
 2614TIP3    H225030   4.355   4.540   7.414  1.7762  0.8713 -0.1541
 2615TIP3   OH225031   4.560   6.638   0.654 -0.1333  0.4390 -0.8332
 2615TIP3    H125032   4.580   6.549   0.625 -0.5370 -0.7271  2.1170
 2615TIP3    H225033   4.510   6.627   0.735  1.3905  3.3600  0.6813
 2616TIP3   OH225034   1.437   1.287   5.461 -0.2030  0.7083 -0.2987
 2616TIP3    H125035   1.444   1.251   5.373 -1.3599 -1.0282  0.2587
 2616TIP3    H225036   1.520   1.332   5.476 -0.1305  1.3525 -2.3824
 2617TIP3   OH225037   5.742   4.218   6.191 -0.2134 -0.0550 -0.4327
 2617TIP3    H125038   5.780   4.282   6.251 -0.7932  0.6474 -0.8062
 2617TIP3    H225039   5.647   4.228   6.203 -0.3106 -1.2539 -0.0686
 2618TIP3   OH225040   5.594   3.799   6.436  0.3140 -0.4806 -0.0343
 2618TIP3    H125041   5.661   3.774   6.371 -1.9631 -3.2559 -1.5395
 2618TIP3    H225042   5.541   3.865   6.391 -0.6928 -1.7077 -0.7006
 2619TIP3   OH225043   6.288   4.235   6.522  0.1254  0.5342 -0.2333
 2619TIP3    H125044   6.209   4.181   6.513  0.4116  0.1917 -0.7511
 2619TIP3    H225045   6.273   4.286   6.601 -0.3919  0.0913 -0.0354
 2620TIP3   OH225046   2.958   6.449   7.513  0.9988  0.3999  0.1202
 2620TIP3    H125047   2.961   6.502   7.433 -1.1740 -1.4540 -1.3374
 2620TIP3    H225048   2.866   6.450   7.538  1.1535 -1.3866  0.9104
 2621TIP3   OH225049   3.741   6.333   1.223 -0.4752  0.1414  0.3780
 2621TIP3    H125050   3.702   6.388   1.155 -0.7376 -0.3054  0.1698
 2621TIP3    H225051   3.789   6.395   1.278  0.0890  0.4633 -0.4489
 2622TIP3   OH225052   4.150   4.537   1.682 -0.0961 -0.1009  0.5526
 2622TIP3    H125053   4.159   4.520   1.776  0.3274 -0.0565  0.5235
 2622TIP3    H225054   4.092   4.613   1.677  0.7004  0.5504  0.8312
 2623TIP3   OH225055   5.920   1.205   0.793  0.2901 -0.4290 -0.0155
 2623TIP3    H125056   5.936   1.194   0.887 -0.7978  1.5911  0.4822
 2623TIP3    H225057   5.832   1.169   0.780 -0.1767  0.6384  0.0812
 2624TIP3   OH225058   5.947   6.593   1.110 -0.4436 -0.5505 -0.1000
 2624TIP3    H125059   5.993   6.525   1.061  0.6772  0.8183 -1.0075
 2624TIP3    H225060   5.920   6.550   1.191 -0.3968 -2.2573 -0.9512
 2625TIP3   OH225061   5.520   5.894   1.774 -0.1550 -0.2749  0.2018
 2625TIP3    H125062   5.462   5.938   1.712 -0.1733 -0.7763 -0.1464
 2625TIP3    H225063   5.460   5.843   1.829 -0.0239 -1.1093 -0.4138
 2626TIP3   OH225064   5.702   3.767   2.665 -0.0476 -0.2000 -0.2331
 2626TIP3    H125065   5.673   3.746   2.577 -0.0762 -0.9700 -0.0524
 2626TIP3    H225066   5.768   3.700   2.685 -1.2928 -1.1298  0.9654
 2627TIP3   OH225067   2.571   4.224   7.696  0.0274 -0.3454  0.0921
 2627TIP3    H125068   2.653   4.267   7.672 -0.1556  0.1316  0.3218
 2627TIP3    H225069   2.553   4.165   7.622  0.7980 -0.7756  0.2406
 2628TIP3   OH225070   5.181   5.959   1.023  0.3119 -0.2343 -0.5421
 2628TIP3    H125071   5.130   5.991   0.949  0.2466 -1.7593 -1.1990
 2628TIP3    H225072   5.152   5.868   1.034 -0.0225  0.0864  1.6661
 2629TIP3   OH225073   1.029   1.296   6.729 -0.3178  0.5210 -0.4426
 2629TIP3    H125074   1.072   1.276   6.813 -1.1397 -0.1682 -0.1727
 2629TIP3    H225075   0.936   1.288   6.748 -0.4936 -0.2633 -1.5819
 2630TIP3   OH225076   5.390   1.826   6.207  0.0517 -0.1592  0.5636
 2630TIP3    H125077   5.407   1.812   6.114 -1.2627 -3.1387  0.6443
 2630TIP3    H225078   5.310   1.879   6.209  0.4082  0.4176  0.0458
 2631TIP3   OH225079   3.260   4.913   0.531  0.3995  0.2036 -0.4606
 2631TIP3    H125080   3.204   4.882   0.460 -0.3107  1.8473 -0.6659
 2631TIP3    H225081   3.313   4.982   0.492  0.4386  0.7064  0.4429
 2632TIP3   OH225082   1.064   0.065   1.823 -0.2096  0.4050  0.1222
 2632TIP3    H125083   1.160   0.066   1.832  0.1473 -0.0658 -2.7408
 2632TIP3    H225084   1.033   0.117   1.898  2.1893 -0.1789  1.6466
 2633TIP3   OH225085   2.623   0.054   7.438 -0.1188 -0.6843 -0.1505
 2633TIP3    H125086   2.572   0.135   7.434  0.4843 -0.2264  0.9464
 2633TIP3    H225087   2.613   0.015   7.351  0.1583  0.9176 -0.9460
 2634TIP3   OH225088   1.740   1.399   6.791  0.1235 -0.4626  0.4657
 2634TIP3    H125089   1.810   1.393   6.856 -0.2992  1.6821  1.1982
 2634TIP3    H225090   1.682   1.467   6.825 -1.1775 -0.6954 -1.1888
 2635TIP3   OH225091   3.763   1.467   6.339  0.3648 -0.1923 -0.1479
 2635TIP3    H125092   3.788   1.416   6.416 -1.6902  0.4196  0.9877
 2635TIP3    H225093   3.717   1.405   6.283  0.8050 -0.3501 -0.3418
 2636TIP3   OH225094   2.101   4.884   7.368  0.2658 -0.2188  0.3385
 2636TIP3    H125095   2.117   4.965   7.321  0.6589 -0.8362 -0.6064
 2636TIP3    H225096   2.170   4.880   7.434 -0.3077  0.6648  1.0123
 2637TIP3   OH225097   1.370   6.088   1.027  0.6920 -0.1189  0.3353
 2637TIP3    H125098   1.448   6.073   0.973 -0.7168  0.7049 -2.0770
 2637TIP3    H225099   1.404   6.127   1.107  2.7877  0.1497 -0.6147
 2638TIP3   OH225100   4.170   4.902   0.355 -0.1933  0.0880  0.1642
 2638TIP3    H125101   4.129   4.886   0.440 -2.3036  0.7972 -0.6561
 2638TIP3    H225102   4.217   4.985   0.366 -1.0930  0.5758  0.4535
 2639TIP3   OH225103   4.052   1.697   7.142 -0.3181  0.6873  0.0499
 2639TIP3    H125104   4.040   1.701   7.237  2.5192  2.3577  0.4365
 2639TIP3    H225105   4.038   1.604   7.121  1.9375 -0.4017  2.6408
 2640TIP3   OH225106   1.933   6.371   0.181 -0.1988  0.3660 -0.2775
 2640TIP3    H125107   1.996   6.438   0.155  1.3359 -1.9534 -3.1385
 2640TIP3    H225108   1.851   6.397   0.138  0.3157  0.5258 -1.1686
 2641TIP3   OH225109   0.952   5.946   6.431  0.3376 -0.1282  0.3023
 2641TIP3    H125110   0.893   5.873   6.414 -0.7563  0.8449 -0.2019
 2641TIP3    H225111   1.039   5.912   6.409 -0.2110 -1.1158 -0.4429
 2642TIP3   OH225112   5.098   5.553   6.699 -0.2427  0.2962 -0.6042
 2642TIP3    H125113   5.135   5.636   6.673  0.1976 -0.0961 -1.2488
 2642TIP3    H225114   5.065   5.568   6.788  1.7094  0.5873  0.1140
 2643TIP3   OH225115   5.089   3.414   1.447  0.3017  0.0654 -0.3124
 2643TIP3    H125116   5.121   3.324   1.455  1.4763  0.4860 -0.1712
 2643TIP3    H225117   5.057   3.420   1.357  1.7486 -0.0186 -0.8521
 2644TIP3   OH225118   1.088   4.919   1.553  0.0800 -0.2387  0.3986
 2644TIP3    H125119   1.134   4.853   1.501  3.9911  1.5460  1.2223
 2644TIP3    H225120   1.054   4.980   1.488  2.7149  0.6222 -0.3349
 2645TIP3   OH225121   5.077   5.462   7.263  0.1117  0.1625 -0.0140
 2645TIP3    H125122   5.078   5.367   7.254  0.6000 -0.0282  1.7097
 2645TIP3    H225123   4.985   5.486   7.250 -0.1610 -0.6476  0.3112
 2646TIP3   OH225124   4.565   2.519   0.461 -0.2119  0.1097 -0.5244
 2646TIP3    H125125   4.485   2.498   0.412 -0.1950  0.3916 -0.6743
 2646TIP3    H225126   4.539   2.591   0.519 -0.8119 -1.5617  1.4256
 2647TIP3   OH225127   1.426   2.385   0.091  0.1843 -0.3996  0.0484
 2647TIP3    H125128   1.484   2.440   0.143 -2.5965  3.5987 -0.6638
 2647TIP3    H225129   1.385   2.326   0.154 -1.3911  2.7515  2.2490
 2648TIP3   OH225130   6.392   1.431   6.738  0.2292 -0.1989 -0.1522
 2648TIP3    H125131   6.331   1.505   6.731  0.9414  0.2668 -1.9069
 2648TIP3    H225132   6.363   1.384   6.816 -2.0560  0.2911 -0.6322
 2649TIP3   OH225133   4.141   3.398   6.095  0.2911  0.1718 -0.5443
 2649TIP3    H125134   4.080   3.384   6.023  0.9133  0.0191 -1.0499
 2649TIP3    H225135   4.201   3.324   6.090 -0.0604 -0.2027  0.5542
 2650TIP3   OH225136   1.816   3.132   0.703  0.5953 -0.3670  0.5117
 2650TIP3    H125137   1.845   3.178   0.782 -0.0713  1.0885 -0.0430
 2650TIP3    H225138   1.722   3.120   0.716  0.1253  1.5482 -0.8112
 2651TIP3   OH225139   5.922   3.768   6.562 -0.6187 -0.6381  0.6669
 2651TIP3    H125140   5.852   3.703   6.552 -1.7698  0.6858 -0.2508
 2651TIP3    H225141   5.979   3.752   6.487  0.0190 -1.6159  1.3291
 2652TIP3   OH225142   1.933   3.126   0.170 -0.3194  0.1075  0.5117
 2652TIP3    H125143   1.991   3.069   0.220 -0.5462 -1.6336 -1.1295
 2652TIP3    H225144   1.861   3.070   0.144 -0.4404  1.0755 -1.3685
 2653TIP3   OH225145   1.994   5.852   0.007  0.0208 -0.3684 -0.0375
 2653TIP3    H125146   2.001   5.757  -0.006 -3.3500 -0.4415 -2.5293
 2653TIP3    H225147   2.029   5.890  -0.074  0.8280  0.5436  0.7155
 2654TIP3   OH225148   0.786   3.016   6.097 -0.1841 -0.1299 -0.1418
 2654TIP3    H125149   0.848   2.976   6.036 -0.0966 -0.2970  0.0566
 2654TIP3    H225150   0.711   3.041   6.042  0.6714  1.4432 -0.6609
 2655TIP3   OH225151   0.957   3.940   6.704  0.2508  0.0762  0.0318
 2655TIP3    H125152   0.989   3.850   6.712 -1.3346 -0.4937  0.4142
 2655TIP3    H225153   0.903   3.940   6.625  1.4564  1.1126 -0.8271
 2656TIP3   OH225154   4.836   3.151   6.375 -0.1977  0.8555 -0.5535
 2656TIP3    H125155   4.804   3.242   6.376 -1.7294  0.3396  0.2973
 2656TIP3    H225156   4.874   3.138   6.461 -0.2051  0.6214 -0.5860
 2657TIP3   OH225157   6.554   4.198   6.360  0.3206  0.0132 -0.4088
 2657TIP3    H125158   6.512   4.224   6.442 -0.1290  1.6967 -1.1142
 2657TIP3    H225159   6.631   4.255   6.354  0.8892 -0.7686 -0.7056
 2658TIP3   OH225160   1.654   5.706   7.357  0.0344 -0.0486 -0.5509
 2658TIP3    H125161   1.673   5.631   7.302 -1.1409 -2.7373  2.4010
 2658TIP3    H225162   1.561   5.724   7.343  0.0141  0.0138 -0.3485
 2659TIP3   OH225163   3.394   4.065   6.345  0.3114  0.3512 -0.1146
 2659TIP3    H125164   3.416   4.063   6.252 -1.4804 -1.3833 -0.5529
 2659TIP3    H225165   3.320   4.125   6.351  1.2098  1.4413  0.4200
 2660TIP3   OH225166   6.332   6.547   5.759  0.2084 -0.3113 -0.1803
 2660TIP3    H125167   6.293   6.470   5.800  0.6321  1.0081  2.9359
 2660TIP3    H225168   6.257   6.597   5.726 -0.5412  0.2957  2.2492
 2661TIP3   OH225169   4.758   1.432   6.531 -0.5372 -0.1364 -0.2922
 2661TIP3    H125170   4.835   1.376   6.536 -0.1176  0.2094 -2.1192
 2661TIP3    H225171   4.691   1.376   6.492 -0.1529  0.5247 -2.0062
 2662TIP3   OH225172   5.827   3.361   6.679 -0.0369  0.3599  0.4037
 2662TIP3    H125173   5.899   3.406   6.636  0.1504  0.5835  0.9389
 2662TIP3    H225174   5.864   3.276   6.705 -0.7443 -0.6873 -1.7442
 2663TIP3   OH225175   3.802   4.359   0.647 -0.6264  0.5944  0.7802
 2663TIP3    H125176   3.780   4.423   0.715 -0.6754  2.3209 -0.7998
 2663TIP3    H225177   3.897   4.364   0.640 -0.6802  0.9003  0.2657
 2664TIP3   OH225178   3.199   1.014   0.898 -0.3997  0.0417  0.3699
 2664TIP3    H125179   3.124   0.972   0.939 -1.4592 -0.6362 -2.0809
 2664TIP3    H225180   3.265   0.945   0.893 -0.5963 -0.1349  0.1667
 2665TIP3   OH225181   0.487   1.846   1.213 -0.5593 -0.2147 -0.2400
 2665TIP3    H125182   0.569   1.888   1.186 -1.6662  1.6683 -0.8466
 2665TIP3    H225183   0.468   1.785   1.142  0.6397 -1.1929  0.2374
 2666TIP3   OH225184   5.495   1.917   0.587  0.1231 -0.0296  0.1510
 2666TIP3    H125185   5.419   1.975   0.579  1.2266  1.7460  1.7261
 2666TIP3    H225186   5.467   1.835   0.547 -1.9615  1.1695 -1.0050
 2667TIP3   OH225187   0.476   5.279   6.318  0.1807 -0.3417  0.5700
 2667TIP3    H125188   0.516   5.289   6.232  1.9458 -1.0290  1.2647
 2667TIP3    H225189   0.488   5.364   6.361  0.7939 -0.5064  0.7279
 2668TIP3   OH225190   1.621   2.324   5.985  0.1799  0.8090 -0.1807
 2668TIP3    H125191   1.567   2.253   5.950  0.1813  0.3769  0.6689
 2668TIP3    H225192   1.558   2.388   6.017  0.1151 -0.0248  1.4875
 2669TIP3   OH225193   0.621   0.682   0.981  0.0315 -0.1911  0.3737
 2669TIP3    H125194   0.598   0.683   1.074  1.9343 -0.8847  0.9093
 2669TIP3    H225195   0.714   0.661   0.980  0.2321  0.5574 -1.6775
 2670TIP3   OH225196   5.973   2.337   0.792  0.0377 -0.1612 -0.0258
 2670TIP3    H125197   6.038   2.390   0.840 -2.0824  1.0049  1.7379
 2670TIP3    H225198   5.998   2.346   0.700  1.2213  1.8853  0.4263
 2671TIP3   OH225199   4.131   4.663   7.642  0.3120  0.1234 -0.0563
 2671TIP3    H125200   4.168   4.686   7.727  1.0196  0.1231 -0.3607
 2671TIP3    H225201   4.188   4.704   7.578 -0.8169  1.0036 -0.5313
 2672TIP3   OH225202   4.045   3.317   6.718 -0.4497 -0.2794 -0.4209
 2672TIP3    H125203   4.104   3.302   6.792 -0.1972 -1.2831 -0.8188
 2672TIP3    H225204   4.013   3.407   6.732  0.6807  0.0621  0.1301
 2673TIP3   OH225205   3.583   5.210   0.644  0.4593 -0.0110 -0.3527
 2673TIP3    H125206   3.650   5.258   0.596  1.0577 -1.8450 -1.4660
 2673TIP3    H225207   3.511   5.199   0.582  0.4625 -0.7833 -0.2383
 2674TIP3   OH225208   3.861   0.788   7.652 -0.2653  0.4515  0.1853
 2674TIP3    H125209   3.939   0.802   7.598 -1.0613  0.4727 -0.9975
 2674TIP3    H225210   3.884   0.825   7.738  0.5976  1.5189 -0.4860
 2675TIP3   OH225211   2.095   0.220   6.425 -0.0915 -0.6051  0.4065
 2675TIP3    H125212   2.013   0.183   6.458 -0.5214 -0.1668 -0.1423
 2675TIP3    H225213   2.140   0.252   6.504  0.0247 -1.7450  0.8192
 2676TIP3   OH225214   2.221   3.287   6.807  0.1474  0.1565 -0.5558
 2676TIP3    H125215   2.185   3.374   6.792  0.6310  0.6376  0.9139
 2676TIP3    H225216   2.315   3.298   6.795  0.1846 -0.2405 -0.6519
 2677TIP3   OH225217   0.128   1.979   0.039 -0.0105  0.3638  0.1042
 2677TIP3    H125218   0.190   1.988  -0.033  1.0899 -1.6317  0.7390
 2677TIP3    H225219   0.093   1.890   0.031 -1.6338  0.9098  0.6830
 2678TIP3   OH225220   0.199   2.857   0.504 -0.2268 -0.2195 -0.0231
 2678TIP3    H125221   0.106   2.871   0.517 -0.0313  0.2569  0.9005
 2678TIP3    H225222   0.214   2.765   0.528 -0.8911 -1.1446 -2.7329
 2679TIP3   OH225223   3.981   3.332   5.880  0.3633 -0.1167  0.1270
 2679TIP3    H125224   4.013   3.340   5.790  1.2453 -1.0810  0.3357
 2679TIP3    H225225   3.946   3.242   5.885 -0.8363  0.3461  0.3983
 2680TIP3   OH225226   4.481   4.769   0.432  0.5375 -0.1579 -0.5737
 2680TIP3    H125227   4.497   4.790   0.524  0.7679  0.5366 -0.7644
 2680TIP3    H225228   4.428   4.689   0.434 -0.4736  0.4976  0.1950
 2681TIP3   OH225229   1.896   1.629   0.566 -0.0902 -0.1642 -0.4197
 2681TIP3    H125230   1.861   1.584   0.643 -1.1342  0.4967 -0.5024
 2681TIP3    H225231   1.961   1.690   0.601  0.0670 -0.4797 -0.1527
 2682TIP3   OH225232   2.737   1.265   7.450  0.6643 -0.4641  0.2612
 2682TIP3    H125233   2.755   1.171   7.454  2.1303 -0.2677 -1.0297
 2682TIP3    H225234   2.641   1.271   7.453  0.5702 -1.9304  1.2472
 2683TIP3   OH225235   6.217   2.177   1.537 -0.0604  0.3634 -0.4526
 2683TIP3    H125236   6.209   2.237   1.463 -0.1376  1.3634  0.3483
 2683TIP3    H225237   6.263   2.101   1.502  1.4777  1.5516 -1.1288
 2684TIP3   OH225238   0.407   4.988   6.393 -0.5048 -0.0815  0.3283
 2684TIP3    H125239   0.342   5.000   6.324 -1.0278 -0.1940  0.7976
 2684TIP3    H225240   0.436   5.077   6.415 -0.2959 -0.0502 -0.0714
 2685TIP3   OH225241   3.301   4.077   0.109  0.1654 -0.3268 -0.0989
 2685TIP3    H125242   3.349   4.041   0.034  0.0593  0.6416 -0.6405
 2685TIP3    H225243   3.356   4.149   0.141  1.3172 -2.0636  2.1604
 2686TIP3   OH225244   4.248   4.196   6.115  0.7982  0.0213  0.0656
 2686TIP3    H125245   4.303   4.245   6.055  2.5859 -1.3054  0.5581
 2686TIP3    H225246   4.215   4.122   6.064  0.0419  0.4080 -0.0238
 2687TIP3   OH225247   4.353   0.985   1.536  0.0902  0.2580 -0.3763
 2687TIP3    H125248   4.274   1.035   1.555  0.2923  0.1625  0.7365
 2687TIP3    H225249   4.420   1.021   1.594  0.4967 -0.6305 -0.2710
 2688TIP3   OH225250   5.696   2.911   1.442 -0.6405  0.1241 -0.0358
 2688TIP3    H125251   5.680   2.818   1.425  0.4328  0.2052 -1.6397
 2688TIP3    H225252   5.761   2.937   1.378 -0.7521  1.9548  0.5266
 2689TIP3   OH225253   0.540   4.986   0.265 -0.2630  0.2171  0.3924
 2689TIP3    H125254   0.629   5.014   0.287  0.6839 -2.9541  1.0211
 2689TIP3    H225255   0.486   5.023   0.335  1.1527 -0.8898  2.1624
 2690TIP3   OH225256   4.784   1.160   6.379 -0.2117 -0.1670 -1.1104
 2690TIP3    H125257   4.738   1.109   6.445  0.9602  0.6586  0.3882
 2690TIP3    H225258   4.871   1.120   6.373  1.0098  1.9950  0.6599
 2691TIP3   OH225259   5.942   6.604   0.666 -0.0373  0.9663  0.3015
 2691TIP3    H125260   6.031   6.612   0.701 -0.2571  1.1017  0.8294
 2691TIP3    H225261   5.949   6.535   0.600  0.0493 -0.4264  1.7150
 2692TIP3   OH225262   5.963   6.040   0.836  0.1319 -0.2409  0.3521
 2692TIP3    H125263   6.030   6.005   0.777 -1.0016 -0.4140 -0.8934
 2692TIP3    H225264   5.926   5.962   0.879  0.0236 -0.2484  0.2467
 2693TIP3   OH225265   5.385   3.011   7.268 -0.0664 -0.1753  0.3259
 2693TIP3    H125266   5.464   3.004   7.322 -0.3137 -1.3489  0.5664
 2693TIP3    H225267   5.362   2.920   7.248 -1.2017  0.1678  0.0284
 2694TIP3   OH225268   5.903   4.005   6.006 -0.3078  0.3496  0.2549
 2694TIP3    H125269   5.980   3.978   6.056  0.6904 -0.7261 -1.7354
 2694TIP3    H225270   5.835   3.944   6.032  0.5708 -1.0550 -0.5996
 2695TIP3   OH225271   5.205   6.582   6.801 -0.6478 -0.4366 -0.1100
 2695TIP3    H125272   5.254   6.608   6.723  0.4916 -1.6790  0.1773
 2695TIP3    H225273   5.201   6.662   6.854  0.7000 -0.2115 -0.3228
 2696TIP3   OH225274   0.752   4.851   6.706  0.2548 -1.1947  0.0493
 2696TIP3    H125275   0.839   4.891   6.694  0.0943 -1.0456 -0.6751
 2696TIP3    H225276   0.728   4.874   6.796  1.0906 -1.4852  0.3599
 2697TIP3   OH225277   3.724   5.038   7.314 -0.0462 -0.0547  0.2013
 2697TIP3    H125278   3.760   5.124   7.338 -0.0121 -0.2903  1.0362
 2697TIP3    H225279   3.636   5.058   7.281 -0.1625  0.2868  0.6938
 2698TIP3   OH225280   6.344   4.449   7.153  0.5583 -0.1712  0.0955
 2698TIP3    H125281   6.285   4.397   7.207  0.4849 -1.2493 -0.9730
 2698TIP3    H225282   6.431   4.429   7.186  0.4473  0.1213  0.5827
 2699TIP3   OH225283   2.064   6.457   7.060  0.2846 -0.1883  0.2309
 2699TIP3    H125284   1.991   6.478   7.118 -0.5135 -0.8607 -0.4997
 2699TIP3    H225285   2.037   6.492   6.974  0.5030 -1.0421 -0.1984
 2700TIP3   OH225286   5.779   4.943   1.624  0.0070  0.5697  0.2711
 2700TIP3    H125287   5.748   4.919   1.711  0.3540  0.4269  0.3546
 2700TIP3    H225288   5.729   5.022   1.602 -0.2561  0.4671  0.4947
 2701TIP3   OH225289   0.169   6.508   0.610  0.4425  0.4063 -0.1043
 2701TIP3    H125290   0.182   6.417   0.583  0.2350 -0.1574  1.5752
 2701TIP3    H225291   0.116   6.546   0.540  1.5834 -0.3847 -1.4653
 2702TIP3   OH225292   3.505   2.419   6.252 -0.5210 -0.5257  0.4334
 2702TIP3    H125293   3.491   2.332   6.214 -0.9533  0.6651 -2.3340
 2702TIP3    H225294   3.538   2.401   6.340  0.1546 -3.4881 -0.3141
 2703TIP3   OH225295   2.534   3.721   7.430  0.1434  0.4411 -0.0794
 2703TIP3    H125296   2.512   3.806   7.468 -2.7403 -0.3953  0.3980
 2703TIP3    H225297   2.559   3.740   7.340 -0.2378  1.8053  0.0814
 2704TIP3   OH225298   4.604   4.327   0.658  0.4425  0.5781  0.7038
 2704TIP3    H125299   4.562   4.290   0.735  0.3273 -0.5622  0.1227
 2704TIP3    H225300   4.542   4.312   0.587  0.1654  2.3965  0.5148
 2705TIP3   OH225301   1.679   4.759   1.854 -0.8207 -0.2421 -0.1803
 2705TIP3    H125302   1.766   4.756   1.894 -1.1717  1.2777  0.7921
 2705TIP3    H225303   1.618   4.746   1.927 -1.4503  1.4987 -0.3476
 2706TIP3   OH225304   2.924   0.039   5.539 -0.1086 -0.0416  0.0254
 2706TIP3    H125305   3.007   0.085   5.525 -0.1817  0.0230 -0.2061
 2706TIP3    H225306   2.879   0.091   5.606 -0.3998  0.5063 -0.5841
 2707TIP3   OH225307   4.309   3.265   7.620  0.5362  1.3098  0.1067
 2707TIP3    H125308   4.401   3.286   7.634  0.5066  1.0429  0.7538
 2707TIP3    H225309   4.296   3.274   7.526  1.4386  0.4889 -0.1120
 2708TIP3   OH225310   4.904   1.767   0.768  0.8653  0.1174 -0.3811
 2708TIP3    H125311   4.908   1.791   0.675  2.0330  1.0385 -0.1239
 2708TIP3    H225312   4.811   1.758   0.787  0.6314 -0.9836 -1.8519
 2709TIP3   OH225313   1.707   4.223   6.965 -0.6551 -0.5917  0.3378
 2709TIP3    H125314   1.757   4.179   7.034 -0.2057 -2.3709 -1.0570
 2709TIP3    H225315   1.764   4.294   6.935 -0.6298 -0.1470  1.3980
 2710TIP3   OH225316   1.162   0.318   5.451  0.5036 -0.2562 -0.1433
 2710TIP3    H125317   1.196   0.317   5.362  2.9986  1.6977  0.6781
 2710TIP3    H225318   1.235   0.352   5.504 -1.7484  1.1840  2.2496
 2711TIP3   OH225319   0.822   0.238   0.978  0.1569  0.2971 -0.1953
 2711TIP3    H125320   0.742   0.287   0.997  0.9085  0.9157  1.6538
 2711TIP3    H225321   0.841   0.257   0.886 -0.1218  2.7387  0.1779
 2712TIP3   OH225322   0.592   1.257   6.288 -0.4753  0.5500 -0.0702
 2712TIP3    H125323   0.511   1.272   6.239 -0.2825  2.2767  0.0667
 2712TIP3    H225324   0.601   1.335   6.342  0.4475 -0.3543  1.1268
 2713TIP3   OH225325   0.389   3.887   0.777  0.0482  0.7541 -0.0669
 2713TIP3    H125326   0.370   3.795   0.763 -0.2138  0.7873  0.0645
 2713TIP3    H225327   0.304   3.931   0.770 -0.4514  0.5678  3.2494
 2714TIP3   OH225328   3.553   0.716   6.660  0.3153  0.0254 -0.1623
 2714TIP3    H125329   3.539   0.622   6.647  2.2309 -0.2769 -0.2968
 2714TIP3    H225330   3.544   0.728   6.755  1.3155 -0.5392  0.0156
 2715TIP3   OH225331   1.765   3.075   6.096 -0.0377  0.4392  0.2469
 2715TIP3    H125332   1.676   3.103   6.116 -0.2174  0.7357 -0.8460
 2715TIP3    H225333   1.784   3.006   6.159 -2.0954 -1.6131 -1.2263
 2716TIP3   OH225334   0.880   3.990   1.516 -0.3338  0.1915 -0.0760
 2716TIP3    H125335   0.927   4.071   1.536 -3.6014  2.4630 -0.7781
 2716TIP3    H225336   0.876   3.988   1.420 -0.6137 -0.6036 -0.0514
 2717TIP3   OH225337   4.655   5.906   1.180 -0.5253  0.1625  0.5932
 2717TIP3    H125338   4.687   5.969   1.244  1.9821 -0.3324 -0.0516
 2717TIP3    H225339   4.560   5.908   1.189 -0.4052  2.4715  2.0278
 2718TIP3   OH225340   1.628   4.036   2.259 -0.5268  0.0906 -0.4646
 2718TIP3    H125341   1.557   3.997   2.310 -0.8339  1.4224  0.1733
 2718TIP3    H225342   1.683   4.079   2.325  0.1623  0.1678 -1.0821
 2719TIP3   OH225343   4.021   1.994   6.450  0.4112 -0.5083  0.0128
 2719TIP3    H125344   3.952   1.944   6.406 -2.1580  2.5852  0.2221
 2719TIP3    H225345   4.096   1.934   6.451 -2.2461 -4.1910 -0.0446
 2720TIP3   OH225346   4.730   1.995   1.356 -0.3696  0.1220 -0.3080
 2720TIP3    H125347   4.639   1.981   1.332 -0.2352 -3.4625  0.6430
 2720TIP3    H225348   4.765   1.906   1.368  2.7000  1.4019  1.3063
 2721TIP3   OH225349   4.637   1.235   0.792 -0.6011  0.5781 -0.4068
 2721TIP3    H125350   4.585   1.158   0.814 -0.0901  1.0952  3.2122
 2721TIP3    H225351   4.637   1.237   0.696 -3.9235 -1.6265 -0.6292
 2722TIP3   OH225352   4.014   1.520   6.520 -0.2986  0.3744 -0.1677
 2722TIP3    H125353   3.954   1.445   6.524 -1.6704  1.3911 -0.9925
 2722TIP3    H225354   3.960   1.596   6.539  0.7518  1.3188 -0.7924
 2723TIP3   OH225355   1.593   3.685   6.339  0.1879  0.0490 -0.6628
 2723TIP3    H125356   1.531   3.651   6.403  0.6325  2.3483  1.0887
 2723TIP3    H225357   1.546   3.680   6.255 -2.6743  2.2054  0.6334
 2724TIP3   OH225358   2.352   4.960   0.379 -0.0576  0.3267  0.0525
 2724TIP3    H125359   2.415   4.955   0.450 -0.3716 -0.9463  0.2665
 2724TIP3    H225360   2.292   4.887   0.394 -0.2434  0.1351 -1.3999
 2725TIP3   OH225361   3.813   2.333   1.280 -0.3073  0.4531 -0.1244
 2725TIP3    H125362   3.798   2.253   1.229 -0.9009  1.7753 -2.1453
 2725TIP3    H225363   3.752   2.326   1.353  0.5574 -1.5013  0.4939
 2726TIP3   OH225364   3.997   5.231   6.217  0.2153 -0.3072  0.4975
 2726TIP3    H125365   3.915   5.281   6.218  0.9282  0.8742  1.1834
 2726TIP3    H225366   3.987   5.172   6.142 -0.5971  0.9523 -0.4306
 2727TIP3   OH225367   2.917   4.070   6.115  0.4290 -0.1106  0.4353
 2727TIP3    H125368   2.945   4.103   6.029 -0.5924  1.7949  0.7636
 2727TIP3    H225369   2.833   4.114   6.131  0.3304 -0.8570  2.1688
 2728TIP3   OH225370   3.711   5.312   7.431 -0.5838  0.0787  0.3140
 2728TIP3    H125371   3.678   5.317   7.341 -0.2183 -0.3003  0.1531
 2728TIP3    H225372   3.633   5.313   7.486 -0.8153  0.1759 -0.0135
 2729TIP3   OH225373   6.559   2.113   0.384  0.0905  1.0656  0.1997
 2729TIP3    H125374   6.534   2.149   0.299 -1.5187  1.7553  0.9070
 2729TIP3    H225375   6.530   2.180   0.447  0.6655  0.2855  1.3271
 2730TIP3   OH225376   0.471   4.877   1.805 -0.2384  0.5134  0.6954
 2730TIP3    H125377   0.564   4.875   1.785  0.1129  1.6611  1.9921
 2730TIP3    H225378   0.458   4.961   1.849 -2.4210  1.6448 -1.8129
 2731TIP3   OH225379   2.038   4.501   0.399 -0.0252 -0.5631  0.0489
 2731TIP3    H125380   1.991   4.578   0.367 -0.8051 -0.2320  1.8466
 2731TIP3    H225381   2.076   4.461   0.321 -1.2213  0.5689 -1.1538
 2732TIP3   OH225382   3.610   1.040   1.585 -0.2146  0.0476  0.0922
 2732TIP3    H125383   3.524   1.010   1.614  0.3672 -1.6462  0.1492
 2732TIP3    H225384   3.597   1.132   1.561 -1.8453  0.0435  0.8643
 2733TIP3   OH225385   3.026   6.462   6.791 -0.4328  0.7605 -0.8817
 2733TIP3    H125386   3.102   6.490   6.740  1.0515 -2.6418 -0.8120
 2733TIP3    H225387   3.001   6.377   6.754 -0.7794 -0.7512  2.4012
 2734TIP3   OH225388   3.846   3.226   7.477 -0.8915  0.5789  0.5537
 2734TIP3    H125389   3.776   3.251   7.537 -1.6440  0.3305 -0.1929
 2734TIP3    H225390   3.849   3.131   7.480 -0.2541  0.6012  0.9296
 2735TIP3   OH225391   1.893   0.414   6.566  0.2995 -0.0233  0.2375
 2735TIP3    H125392   1.882   0.319   6.571  1.6122 -0.1501  1.2811
 2735TIP3    H225393   1.909   0.431   6.473 -0.5019 -0.7478 -0.0492
 2736TIP3   OH225394   0.827   1.325   2.081 -0.1046  0.0024 -0.2316
 2736TIP3    H125395   0.795   1.238   2.103  0.6828  0.0085  0.9982
 2736TIP3    H225396   0.813   1.378   2.160  0.5898  0.6524 -0.5244
 2737TIP3   OH225397   3.635   1.763   7.117 -0.1086 -0.3965  0.3410
 2737TIP3    H125398   3.676   1.703   7.179  1.5694 -1.6078 -1.7980
 2737TIP3    H225399   3.694   1.838   7.114  0.3084 -0.7478 -0.4325
 2738TIP3   OH225400   3.536   1.446   1.705 -0.0454  0.2236  0.4478
 2738TIP3    H125401   3.629   1.424   1.703 -0.1951 -0.7563  1.9856
 2738TIP3    H225402   3.491   1.361   1.704 -0.9224  0.6770 -0.0505
 2739TIP3   OH225403   2.301   6.420   1.353  0.5435  0.0827  0.2253
 2739TIP3    H125404   2.336   6.360   1.288  0.0680  0.2338 -0.1715
 2739TIP3    H225405   2.316   6.376   1.437 -0.8134 -1.1229 -0.1306
 2740TIP3   OH225406   1.455   2.985   7.102  0.2709  0.0993 -0.2196
 2740TIP3    H125407   1.407   2.933   7.037 -2.9624  2.2788  0.2204
 2740TIP3    H225408   1.538   3.005   7.059 -0.8839 -0.3157 -2.8418
 2741TIP3   OH225409   2.872   1.145   1.004  0.8127 -0.2066  0.0247
 2741TIP3    H125410   2.800   1.089   0.975  2.4596 -1.6653 -1.5068
 2741TIP3    H225411   2.937   1.084   1.039  1.1952  1.1051  1.7457
 2742TIP3   OH225412   5.073   1.179   1.926 -0.3798 -0.1132 -0.4601
 2742TIP3    H125413   5.102   1.119   1.994  2.1050  0.5196 -0.8631
 2742TIP3    H225414   5.038   1.254   1.974  0.9179  0.1285  0.1619
 2743TIP3   OH225415   1.901   2.233   0.575  0.5179  0.1546  0.0003
 2743TIP3    H125416   1.932   2.322   0.588 -1.2009  0.6079  1.4336
 2743TIP3    H225417   1.963   2.178   0.622  0.4143  0.8246  0.9562
 2744TIP3   OH225418   6.224   0.946   1.608 -0.2614 -0.4733 -0.3734
 2744TIP3    H125419   6.197   0.860   1.638  1.1774 -0.7693  0.1553
 2744TIP3    H225420   6.186   1.007   1.672  0.1628 -0.8586  0.2557
 2745TIP3   OH225421   5.973   2.810   2.043 -0.7910  0.1062 -0.0899
 2745TIP3    H125422   5.997   2.735   2.099  0.0829 -0.8636 -1.6901
 2745TIP3    H225423   5.938   2.875   2.104 -2.3769 -1.9049  1.2767
 2746TIP3   OH225424   4.388   4.731   1.867  0.9181 -0.8382 -0.2721
 2746TIP3    H125425   4.448   4.758   1.797  0.2411  0.0228 -0.5367
 2746TIP3    H225426   4.384   4.636   1.860  0.8516 -0.7655 -1.4179
 2747TIP3   OH225427   6.256   1.531   7.649  0.0649  0.5887 -0.0310
 2747TIP3    H125428   6.167   1.513   7.679  0.0599 -1.4643 -1.0796
 2747TIP3    H225429   6.246   1.600   7.583 -0.8176  0.1127 -0.4105
 2748TIP3   OH225430   1.352   3.200   1.252 -0.7940 -0.0775 -0.2260
 2748TIP3    H125431   1.334   3.264   1.183 -1.7243 -0.7610 -0.6579
 2748TIP3    H225432   1.385   3.123   1.205 -0.4914 -0.2110  0.1975
 2749TIP3   OH225433   2.749   2.327   5.903  0.1391  0.0002 -0.8692
 2749TIP3    H125434   2.830   2.340   5.854  0.3429 -0.0958 -0.5589
 2749TIP3    H225435   2.756   2.238   5.938  0.3012  0.3139 -0.0943
 2750TIP3   OH225436   2.324   0.765   5.431  0.1072 -0.1723  0.2796
 2750TIP3    H125437   2.331   0.807   5.345 -0.9881  0.7998  0.6204
 2750TIP3    H225438   2.261   0.820   5.478  0.2830 -0.9986  1.5169
 2751TIP3   OH225439   2.870   5.874   0.719  0.0568  0.0657 -0.0542
 2751TIP3    H125440   2.899   5.965   0.710 -0.5064  0.3228  0.6568
 2751TIP3    H225441   2.858   5.862   0.813 -2.7982  0.1824 -0.3335
 2752TIP3   OH225442   3.879   2.487   0.628 -0.3058 -0.4320  0.0082
 2752TIP3    H125443   3.945   2.455   0.689  0.1606 -1.5060 -1.0082
 2752TIP3    H225444   3.928   2.540   0.565 -0.5146 -0.6440 -0.3375
 2753TIP3   OH225445   5.458   5.666   1.943 -0.2732  0.4560 -0.0093
 2753TIP3    H125446   5.527   5.615   1.986 -0.4337 -0.3001 -0.6332
 2753TIP3    H225447   5.376   5.627   1.973 -0.4763  1.8390  1.3287
 2754TIP3   OH225448   1.649   2.806   7.504 -0.5478 -0.5144 -0.1608
 2754TIP3    H125449   1.647   2.717   7.539 -1.0028 -0.6870 -0.6073
 2754TIP3    H225450   1.574   2.850   7.545 -0.3190 -0.3349  0.0657
 2755TIP3   OH225451   6.478   3.304   5.892  0.4894  0.0156 -0.1713
 2755TIP3    H125452   6.401   3.248   5.906  1.8840 -2.5772 -2.1514
 2755TIP3    H225453   6.445   3.375   5.837 -0.5713 -0.9452 -0.8290
 2756TIP3   OH225454   3.189   4.333   7.461 -0.3067  0.4594  0.9730
 2756TIP3    H125455   3.103   4.359   7.428  0.1345  0.6523 -0.0496
 2756TIP3    H225456   3.172   4.251   7.508 -1.3704  1.4955  2.5345
 2757TIP3   OH225457   3.573   4.772   0.111 -0.1682 -0.4732 -0.0578
 2757TIP3    H125458   3.594   4.692   0.064  1.2848 -1.0869  1.5380
 2757TIP3    H225459   3.547   4.743   0.198  0.2015  0.7836  0.4892
 2758TIP3   OH225460   0.164   4.093   0.024 -0.8260  0.6680  0.1668
 2758TIP3    H125461   0.212   4.039   0.087 -2.2997 -1.4395 -0.3972
 2758TIP3    H225462   0.078   4.107   0.064 -2.2903 -1.8442 -1.7501
 2759TIP3   OH225463   5.709   3.242   7.147 -0.0383  0.2473 -0.2421
 2759TIP3    H125464   5.646   3.310   7.123  0.2657 -0.1269 -2.2831
 2759TIP3    H225465   5.771   3.240   7.074 -0.3023 -2.5077 -0.5011
 2760TIP3   OH225466   0.497   1.772   6.335  0.2513  0.0817 -0.1442
 2760TIP3    H125467   0.446   1.795   6.257  0.4502  2.2191  0.2812
 2760TIP3    H225468   0.432   1.743   6.399 -0.0221 -0.7135 -0.7830
 2761TIP3   OH225469   0.805   2.772   7.434 -0.3012 -0.0945 -0.1472
 2761TIP3    H125470   0.721   2.761   7.478 -0.1277 -0.8280  0.0134
 2761TIP3    H225471   0.785   2.825   7.358 -1.0254 -0.7591 -0.4376
 2762TIP3   OH225472   0.677   4.197   5.862 -0.1426  0.5456  0.4062
 2762TIP3    H125473   0.727   4.131   5.814  0.3775  1.3653 -0.1935
 2762TIP3    H225474   0.590   4.157   5.873 -0.6739  0.7919 -2.2608
 2763TIP3   OH225475   2.445   4.844   1.541 -0.0586  0.2121 -0.4084
 2763TIP3    H125476   2.532   4.884   1.547  1.1078 -2.3419  1.2994
 2763TIP3    H225477   2.448   4.793   1.460  0.4544 -0.7526  0.2111
 2764TIP3   OH225478   4.365   6.419   1.957 -0.1232  0.1497  0.0967
 2764TIP3    H125479   4.359   6.506   1.918  1.0291  0.9627  1.6084
 2764TIP3    H225480   4.325   6.428   2.044  1.8392 -0.2432  1.1060
 2765TIP3   OH225481   0.387   2.614   6.386  0.1082  0.0171 -0.3109
 2765TIP3    H125482   0.452   2.675   6.420  0.9968 -0.1462 -1.6511
 2765TIP3    H225483   0.423   2.527   6.405 -1.9419 -0.2719  3.1628
 2766TIP3   OH225484   4.888   2.579   1.694 -0.6914 -0.0595  0.2415
 2766TIP3    H125485   4.878   2.571   1.789 -1.3546  0.4627  0.2216
 2766TIP3    H225486   4.858   2.667   1.674 -0.4523 -0.1270 -0.4466
 2767TIP3   OH225487   3.025   5.090   6.441  0.4277  0.3224  0.1782
 2767TIP3    H125488   3.025   5.185   6.429  1.3245  0.5218  1.5529
 2767TIP3    H225489   3.041   5.077   6.534  0.1698 -1.1848  0.0412
 2768TIP3   OH225490   5.141   6.091   1.460 -0.2438 -0.3638 -0.1487
 2768TIP3    H125491   5.098   6.160   1.410 -1.3463  0.0583  1.3119
 2768TIP3    H225492   5.074   6.060   1.521  1.2560 -0.2388  1.6649
 2769TIP3   OH225493   3.604   5.766   7.318  0.0834 -0.6393  0.1478
 2769TIP3    H125494   3.532   5.822   7.350  0.7736  0.2498  0.1811
 2769TIP3    H225495   3.661   5.755   7.394  0.3660 -0.7233 -0.0740
 2770TIP3   OH225496   5.439   1.905   1.552  0.7117 -0.0353  0.0232
 2770TIP3    H125497   5.436   1.838   1.484 -1.7863 -0.5553  0.5590
 2770TIP3    H225498   5.404   1.984   1.510  1.0348  0.1934  0.1752
 2771TIP3   OH225499   6.292   2.381   6.477 -0.1345  0.2758  0.1792
 2771TIP3    H125500   6.295   2.472   6.446  0.7861 -0.6130 -2.6530
 2771TIP3    H225501   6.378   2.346   6.456 -0.6027 -1.3688  0.8992
 2772TIP3   OH225502   1.621   4.084   7.522 -0.4757 -0.1319 -0.7211
 2772TIP3    H125503   1.715   4.089   7.540 -0.3954  0.2780 -1.2431
 2772TIP3    H225504   1.591   4.010   7.575 -0.1731  0.7835  0.8033
 2773TIP3   OH225505   2.089   5.436   7.447 -0.1657 -0.3309  0.4305
 2773TIP3    H125506   1.995   5.438   7.468 -0.2400  0.6953  0.0279
 2773TIP3    H225507   2.094   5.474   7.359  0.4703 -1.7645 -0.1849
 2774TIP3   OH225508   3.667   6.471   0.738  0.2245 -0.0985 -0.2706
 2774TIP3    H125509   3.756   6.472   0.772  0.0579 -2.1686  0.3871
 2774TIP3    H225510   3.633   6.385   0.763 -1.9349  0.5986 -0.5744
 2775TIP3   OH225511   0.758   5.798   7.656  0.2939 -0.7537 -0.0060
 2775TIP3    H125512   0.783   5.879   7.611 -1.4642 -0.4546 -0.5084
 2775TIP3    H225513   0.800   5.728   7.606 -0.8362 -0.3573 -1.5611
 2776TIP3   OH225514   3.294   5.048   7.540 -0.1145 -0.3979  0.2053
 2776TIP3    H125515   3.354   4.984   7.503  1.0463  0.1683  1.0481
 2776TIP3    H225516   3.239   5.076   7.466  0.6175 -0.9633 -0.5667
 2777TIP3   OH225517   0.275   2.058   7.568  0.1293  0.1219  0.6218
 2777TIP3    H125518   0.242   2.103   7.490  1.8888  0.0640 -0.1998
 2777TIP3    H225519   0.349   2.112   7.596  0.0798 -0.3693  1.7156
 2778TIP3   OH225520   5.681   1.665   6.853  0.1970 -0.2487  0.3066
 2778TIP3    H125521   5.714   1.620   6.931 -1.3433  0.8754  1.6818
 2778TIP3    H225522   5.586   1.669   6.866  0.1430  2.2209 -0.3576
 2779TIP3   OH225523   5.046   0.435   7.011  0.2628  1.0450 -0.2750
 2779TIP3    H125524   5.110   0.476   6.953  0.2300  0.4266 -0.7534
 2779TIP3    H225525   4.980   0.398   6.952  0.1776  0.4874  0.1585
 2780TIP3   OH225526   3.014   0.004   0.711  0.6730  0.1461 -0.4291
 2780TIP3    H125527   2.965   0.081   0.740 -0.5912 -0.7633 -0.0704
 2780TIP3    H225528   3.031   0.020   0.618 -0.0911  0.6108 -0.5014
 2781TIP3   OH225529   0.680   2.016   1.130  0.0438  0.0853 -0.4914
 2781TIP3    H125530   0.701   2.011   1.223 -0.6752  0.9954 -0.2592
 2781TIP3    H225531   0.740   2.082   1.095  0.1411 -0.0691 -0.6162
 2782TIP3   OH225532   4.656   2.436   0.753 -0.6596  0.3775 -0.2795
 2782TIP3    H125533   4.597   2.424   0.828 -0.5702 -0.8423 -0.3824
 2782TIP3    H225534   4.643   2.527   0.727 -2.1764  0.2690 -0.0228
 2783TIP3   OH225535   1.171   1.053   6.554 -0.0945 -0.7316 -0.5256
 2783TIP3    H125536   1.116   1.019   6.625  0.1874 -0.5817 -0.2289
 2783TIP3    H225537   1.134   1.138   6.534 -0.5551 -1.0386 -0.9902
 2784TIP3   OH225538   1.776   1.760   6.678  0.6359  0.1982 -0.7015
 2784TIP3    H125539   1.762   1.803   6.762  0.4571  0.6994 -0.9821
 2784TIP3    H225540   1.868   1.735   6.678  0.6440  0.2331 -0.3722
 2785TIP3   OH225541   3.707   3.796   7.602 -0.0895 -0.0823  0.2277
 2785TIP3    H125542   3.625   3.767   7.643  0.0048 -1.1969 -0.3467
 2785TIP3    H225543   3.736   3.721   7.550  0.0872  1.0744 -1.4240
 2786TIP3   OH225544   3.061   5.876   6.414 -0.4282  0.1142 -0.6512
 2786TIP3    H125545   2.975   5.912   6.437 -1.3723 -1.0989 -2.0280
 2786TIP3    H225546   3.123   5.943   6.440 -1.4094 -0.3825  3.7141
 2787TIP3   OH225547   5.709   1.941   1.624 -0.2033 -0.0343  0.0996
 2787TIP3    H125548   5.717   1.951   1.529 -0.5357 -0.6050  0.0064
 2787TIP3    H225549   5.615   1.940   1.641 -0.1490 -0.0800  0.4160
 2788TIP3   OH225550   0.318   3.089   6.074  0.3733  0.2703  0.2716
 2788TIP3    H125551   0.302   3.014   6.131 -0.7147  0.4696  0.2544
 2788TIP3    H225552   0.246   3.087   6.010  2.3690 -0.8104 -2.0697
 2789TIP3   OH225553   2.617   5.844   7.587 -0.3920 -0.3159  0.2347
 2789TIP3    H125554   2.530   5.808   7.601 -0.5406  0.2496  0.8138
 2789TIP3    H225555   2.604   5.915   7.525 -0.5809  0.6710  1.3590
 2790TIP3   OH225556   0.661   2.577   6.711  1.0583 -0.0350 -0.1329
 2790TIP3    H125557   0.640   2.607   6.799  2.1626  1.7653 -0.4232
 2790TIP3    H225558   0.635   2.649   6.654  1.9072 -0.4676 -1.1124
 2791TIP3   OH225559   2.463   3.533   6.512 -0.6210  0.1340 -0.0882
 2791TIP3    H125560   2.482   3.498   6.425  1.3240 -1.2188  0.8153
 2791TIP3    H225561   2.409   3.611   6.496 -0.8785 -0.4803 -2.4427
 2792TIP3   OH225562   5.957   2.647   6.665  0.1401  0.6463  0.1627
 2792TIP3    H125563   6.037   2.699   6.664  1.0553 -0.6973 -0.6501
 2792TIP3    H225564   5.896   2.697   6.718  1.8890  1.1722  1.7857
 2793TIP3   OH225565   3.343   4.452   1.137  0.2608 -0.0894  0.2581
 2793TIP3    H125566   3.375   4.499   1.060 -0.0962 -0.7732 -0.3291
 2793TIP3    H225567   3.290   4.381   1.100 -1.2838  0.5512  1.1911
 2794TIP3   OH225568   1.110   5.560   1.921 -0.0688 -0.0458 -0.5091
 2794TIP3    H125569   1.185   5.542   1.978 -0.9230  3.1739  1.9638
 2794TIP3    H225570   1.035   5.522   1.967 -0.2483 -2.0188 -2.2719
 2795TIP3   OH225571   0.757   5.400   7.095 -0.4239  0.4636  0.0152
 2795TIP3    H125572   0.717   5.367   7.014 -0.4975  1.3988 -0.3416
 2795TIP3    H225573   0.849   5.374   7.089 -0.8306 -1.2003  0.5707
 2796TIP3   OH225574   4.133   2.976   0.671  0.3200  0.1863  0.0957
 2796TIP3    H125575   4.082   2.910   0.718  0.4731 -1.1239 -1.4997
 2796TIP3    H225576   4.206   2.928   0.633  0.4031  1.2436 -1.1637
 2797TIP3   OH225577   4.718   4.088   1.325  0.1678  0.1752  0.0449
 2797TIP3    H125578   4.664   4.031   1.380 -0.1521 -0.2603 -0.7112
 2797TIP3    H225579   4.806   4.051   1.333 -0.4921 -2.4860 -2.9179
 2798TIP3   OH225580   4.805   5.415   1.147  0.6319 -0.3543 -0.2377
 2798TIP3    H125581   4.768   5.338   1.104 -1.0502  1.9744 -3.4878
 2798TIP3    H225582   4.890   5.428   1.105 -0.0596  0.7043 -1.3901
 2799TIP3   OH225583   6.507   6.630   6.099  0.4331 -0.0034 -0.9719
 2799TIP3    H125584   6.577   6.618   6.035  0.9004 -2.5904 -0.1233
 2799TIP3    H225585   6.550   6.621   6.184 -0.5794  0.6629 -0.3717
 2800TIP3   OH225586   5.987   6.066   0.533  0.1157 -0.3573  0.7495
 2800TIP3    H125587   5.955   5.979   0.558  0.3576 -0.6613  0.0478
 2800TIP3    H225588   5.909   6.113   0.504  0.1039 -0.6383  0.3161
 2801TIP3   OH225589   6.262   3.003   6.877 -0.7680  0.6358 -0.7448
 2801TIP3    H125590   6.225   3.007   6.965 -1.4144 -0.9615 -0.9012
 2801TIP3    H225591   6.186   2.998   6.819 -0.3385  1.0568 -1.3518
 2802TIP3   OH225592   4.337   2.395   0.355 -0.4854  0.3122 -0.0516
 2802TIP3    H125593   4.374   2.339   0.286 -2.7716 -0.3967 -0.7988
 2802TIP3    H225594   4.303   2.471   0.309  1.1054  1.5613  0.7710
 2803TIP3   OH225595   4.102   0.053   7.291  0.1231 -0.8199 -0.4548
 2803TIP3    H125596   4.165   0.035   7.360 -0.4810  0.2713  0.4325
 2803TIP3    H225597   4.033   0.103   7.334  0.5854  1.4982 -2.1816
 2804TIP3   OH225598   2.617   5.701   7.181  0.3492 -0.4756  0.3918
 2804TIP3    H125599   2.646   5.636   7.116  0.7509 -0.1113  0.2006
 2804TIP3    H225600   2.639   5.786   7.142  0.2752 -0.2387  0.8552
 2805TIP3   OH225601   0.635   3.559   0.649 -0.6930  0.5913  0.2216
 2805TIP3    H125602   0.589   3.621   0.593 -2.9340 -0.8914  0.2926
 2805TIP3    H225603   0.579   3.481   0.650  0.7877 -0.5432  2.0838
 2806TIP3   OH225604   3.372   3.109   2.139  0.0713  0.5925 -0.0591
 2806TIP3    H125605   3.427   3.071   2.207 -2.5141 -0.8066  1.4161
 2806TIP3    H225606   3.315   3.170   2.186 -2.3998 -1.0735 -0.7051
 2807TIP3   OH225607   2.740   4.205   6.283  0.0282 -0.0570  0.0600
 2807TIP3    H125608   2.722   4.116   6.314 -1.9893 -0.3518 -1.7502
 2807TIP3    H225609   2.719   4.260   6.358 -0.3136 -1.0043  0.6888
 2808TIP3   OH225610   0.674   2.542   1.693 -0.5685  0.3083 -1.0310
 2808TIP3    H125611   0.727   2.526   1.771 -2.5907 -2.5292 -0.0710
 2808TIP3    H225612   0.701   2.629   1.663  2.0489  0.4672  1.3604
 2809TIP3   OH225613   3.942   4.913   1.024 -0.4463 -0.2141  0.1713
 2809TIP3    H125614   3.983   4.999   1.033  0.8661 -0.9334  1.7419
 2809TIP3    H225615   3.918   4.889   1.114 -0.5805 -1.5646 -0.2101
 2810TIP3   OH225616   1.446   5.555   7.031 -0.5053 -0.0498 -0.0752
 2810TIP3    H125617   1.535   5.547   7.066 -0.7931  0.8389  0.8987
 2810TIP3    H225618   1.452   5.623   6.965 -0.2230 -0.8495 -0.8949
 2811TIP3   OH225619   5.370   0.094   1.534  0.1923 -0.2772 -0.9774
 2811TIP3    H125620   5.387   0.125   1.623 -0.1607  1.1524 -1.3907
 2811TIP3    H225621   5.300   0.029   1.544  0.3556 -0.3352 -0.1837
 2812TIP3   OH225622   4.862   4.807   1.398  0.2861 -0.2834 -0.2286
 2812TIP3    H125623   4.918   4.883   1.417  0.6897 -0.5969 -0.1639
 2812TIP3    H225624   4.864   4.755   1.478  0.8788 -0.9064 -0.6396
 2813TIP3   OH225625   2.944   4.665   7.507 -0.2868  0.1438 -0.0121
 2813TIP3    H125626   2.990   4.721   7.569 -0.6055 -0.6554  0.9705
 2813TIP3    H225627   2.863   4.641   7.552 -0.1136 -1.1742 -0.3754
 2814TIP3   OH225628   6.112   3.297   7.460  0.0578 -0.4816 -0.6238
 2814TIP3    H125629   6.197   3.342   7.464 -0.0605 -0.3086  0.2330
 2814TIP3    H225630   6.070   3.333   7.382  0.4967 -0.0500 -0.6713
 2815TIP3   OH225631   3.165   0.900   7.388  0.0340 -0.5669  1.1356
 2815TIP3    H125632   3.242   0.889   7.333  0.8366 -2.6897  2.5492
 2815TIP3    H225633   3.174   0.989   7.423  0.7456 -0.0542 -0.2533
 2816TIP3   OH225634   1.891   1.142   2.027  0.1319 -0.0046  0.0800
 2816TIP3    H125635   1.928   1.058   1.999 -0.3234 -1.0839  2.4332
 2816TIP3    H225636   1.796   1.128   2.023  0.0574  0.1928  0.9760
 2817TIP3   OH225637   6.341   5.547   7.150 -0.3901  0.2237 -0.7012
 2817TIP3    H125638   6.300   5.633   7.158 -1.2094 -0.1976 -0.2165
 2817TIP3    H225639   6.430   5.560   7.184 -0.3995  0.9463 -0.9282
 2818TIP3   OH225640   0.334   2.650   2.328 -0.2377  0.0087  0.5378
 2818TIP3    H125641   0.283   2.625   2.405 -2.0952  0.9321 -0.3306
 2818TIP3    H225642   0.269   2.666   2.260  1.3009  0.1105 -0.9868
 2819TIP3   OH225643   5.716   3.447   1.390 -0.7446  0.1791 -0.5073
 2819TIP3    H125644   5.802   3.405   1.398 -1.2369 -0.6625  0.7578
 2819TIP3    H225645   5.663   3.404   1.458 -1.5181  2.2936  0.3029
 2820TIP3   OH225646   2.103   4.811   2.157 -0.1999 -0.2249  0.2529
 2820TIP3    H125647   2.178   4.857   2.117 -1.2033  2.7051  1.4883
 2820TIP3    H225648   2.128   4.800   2.248 -1.1546  0.6027  0.6325
 2821TIP3   OH225649   3.950   2.826   1.415  0.1027  0.7077  0.7337
 2821TIP3    H125650   3.882   2.772   1.374 -0.3247  1.7236  0.0376
 2821TIP3    H225651   3.948   2.802   1.507 -0.5848  0.0754  0.5652
 2822TIP3   OH225652   6.627   3.510   6.571 -0.4553 -0.5808  0.1866
 2822TIP3    H125653   6.691   3.570   6.532  1.1052 -1.7893  0.8026
 2822TIP3    H225654   6.548   3.522   6.517  1.3528 -1.6332 -2.9681
 2823TIP3   OH225655   5.985   3.853   7.165  0.5617 -0.1434 -0.1974
 2823TIP3    H125656   5.985   3.904   7.084  0.8773 -0.8366 -0.6422
 2823TIP3    H225657   5.961   3.916   7.233 -2.2732 -0.0545 -1.1429
 2824TIP3   OH225658   5.378   0.709   0.910 -0.7404  0.0034  0.2658
 2824TIP3    H125659   5.344   0.764   0.840 -0.5372  0.1049  0.2468
 2824TIP3    H225660   5.413   0.771   0.974  2.2390 -0.1174 -1.0959
 2825TIP3   OH225661   0.407   4.557   6.356  0.5140 -0.2486  0.8487
 2825TIP3    H125662   0.395   4.649   6.379 -0.6720 -0.0135 -0.5721
 2825TIP3    H225663   0.502   4.544   6.359  0.6584  0.8608  1.6277
 2826TIP3   OH225664   3.205   6.287   6.200  0.1332  0.2815  0.7794
 2826TIP3    H125665   3.111   6.286   6.217 -0.1668  0.9209 -0.6521
 2826TIP3    H225666   3.214   6.335   6.118  1.6976  0.0385  0.7696
 2827TIP3   OH225667   0.294   1.780   6.111 -0.5392 -0.1592 -0.4106
 2827TIP3    H125668   0.281   1.704   6.055 -1.0026 -0.3613 -0.0338
 2827TIP3    H225669   0.218   1.836   6.093  0.1577  0.5660 -1.2299
 2828TIP3   OH225670   4.418   1.232   7.441 -0.3891  0.3968  0.2905
 2828TIP3    H125671   4.492   1.234   7.380 -0.0872 -0.8566  0.5846
 2828TIP3    H225672   4.345   1.268   7.390 -0.2651 -1.0586 -1.0098
 2829TIP3   OH225673   3.365   5.394   7.023 -0.7877 -0.3069 -0.2112
 2829TIP3    H125674   3.324   5.435   6.947 -2.3445  0.1824  0.8412
 2829TIP3    H225675   3.378   5.465   7.085  0.2274 -0.7453  0.1153
 2830TIP3   OH225676   3.502   6.072   6.851 -0.3923  0.6601 -0.0022
 2830TIP3    H125677   3.412   6.095   6.830 -0.7010 -0.6736 -0.2249
 2830TIP3    H225678   3.525   6.128   6.925 -1.6586  0.4948  0.5367
 2831TIP3   OH225679   2.454   4.754   1.278 -0.0516  0.0884  0.7596
 2831TIP3    H125680   2.372   4.704   1.273  0.4318 -0.6405 -0.1815
 2831TIP3    H225681   2.440   4.829   1.222  0.2211 -0.4976 -0.1125
 2832TIP3   OH225682   4.412   3.906   1.070 -0.1741  0.1469  0.5547
 2832TIP3    H125683   4.416   3.944   0.982  0.2354 -0.3643  0.3489
 2832TIP3    H225684   4.396   3.981   1.127  3.3484  1.1395  0.4817
 2833TIP3   OH225685   1.840   5.929   7.435 -0.4593  0.3861 -0.7076
 2833TIP3    H125686   1.749   5.957   7.443 -0.3723  1.2947 -2.3094
 2833TIP3    H225687   1.839   5.868   7.361  0.3481  1.0630 -1.2909
 2834TIP3   OH225688   2.876   4.199   6.985  0.7310  0.2092 -0.2582
 2834TIP3    H125689   2.936   4.129   6.960 -0.1778 -0.3519 -0.8821
 2834TIP3    H225690   2.828   4.164   7.061  1.9782  1.0995  0.9931
 2835TIP3   OH225691   2.509   4.958   0.607 -0.3246 -0.0863 -0.1401
 2835TIP3    H125692   2.571   4.992   0.672 -1.3272  1.8263 -0.1191
 2835TIP3    H225693   2.522   4.863   0.609  0.8047  0.0584  1.6845
 2836TIP3   OH225694   5.266   1.505   1.955  0.0900 -0.0743  0.1708
 2836TIP3    H125695   5.266   1.451   2.034 -0.4413 -0.6970 -0.2367
 2836TIP3    H225696   5.205   1.576   1.974 -0.9760 -0.8952 -0.1057
 2837TIP3   OH225697   0.483   5.813   7.629  0.5675  0.1692 -0.2591
 2837TIP3    H125698   0.480   5.768   7.545 -0.5798 -0.2862  0.0111
 2837TIP3    H225699   0.572   5.797   7.662  0.0235 -2.4476  0.1090
 2838TIP3   OH225700   2.976   3.760   7.615 -0.0700 -0.6141 -0.4458
 2838TIP3    H125701   2.927   3.796   7.542 -0.6453 -1.0584 -0.2911
 2838TIP3    H225702   2.910   3.719   7.671  0.0001  1.8534  1.6380
 2839TIP3   OH225703   0.919   4.065   7.458 -0.0439 -0.3029  0.4529
 2839TIP3    H125704   0.939   4.051   7.365  0.6261  0.1101  0.5285
 2839TIP3    H225705   0.876   3.984   7.485 -0.2969 -0.4062 -0.2320
 2840TIP3   OH225706   4.635   1.715   2.242 -0.2083 -1.2506  0.6575
 2840TIP3    H125707   4.717   1.680   2.276 -0.8205 -2.0768  1.3043
 2840TIP3    H225708   4.581   1.638   2.225 -0.7843 -0.7274  0.0435
 2841TIP3   OH225709   1.959   0.588   1.348 -0.0988  0.8411  0.2828
 2841TIP3    H125710   1.886   0.625   1.399 -0.2600  0.4398  0.3502
 2841TIP3    H225711   2.017   0.662   1.331 -1.3085  1.5121 -1.1432
 2842TIP3   OH225712   0.405   0.597   6.990  0.3129  0.1324 -0.6802
 2842TIP3    H125713   0.469   0.548   7.042  1.8438  2.0908 -0.6281
 2842TIP3    H225714   0.335   0.618   7.053  1.0182  0.4633  0.0074
 2843TIP3   OH225715   1.740   4.929   1.208 -0.1114  0.1377 -0.1789
 2843TIP3    H125716   1.646   4.930   1.224 -0.0121 -0.9917  0.5956
 2843TIP3    H225717   1.754   4.994   1.138 -1.6340 -0.6519 -1.2646
 2844TIP3   OH225718   2.811   5.598   6.297 -0.1708 -0.8563 -0.3098
 2844TIP3    H125719   2.820   5.693   6.305 -1.8495 -0.7598  1.3895
 2844TIP3    H225720   2.846   5.577   6.211  1.4285  1.1212 -0.1981
 2845TIP3   OH225721   1.559   0.159   0.568  0.1234  0.6715 -0.0248
 2845TIP3    H125722   1.598   0.202   0.491 -0.3839 -2.2848 -2.1164
 2845TIP3    H225723   1.629   0.104   0.602  0.1675  1.5451  1.3638
 2846TIP3   OH225724   4.611   0.878   7.306 -0.6867 -0.5656 -0.4760
 2846TIP3    H125725   4.574   0.838   7.228  0.8545 -1.5369 -0.7542
 2846TIP3    H225726   4.595   0.815   7.376 -0.2142 -0.6682 -0.4547
 2847TIP3   OH225727   6.407   1.511   1.954  0.0348  0.2058  0.7323
 2847TIP3    H125728   6.389   1.600   1.984 -0.3390  0.4803 -0.2693
 2847TIP3    H225729   6.498   1.514   1.923 -0.1053  0.3425  0.3323
 2848TIP3   OH225730   1.759   1.770   7.567  0.4495 -0.1738  0.6468
 2848TIP3    H125731   1.685   1.775   7.507  2.0267  1.9425 -1.2952
 2848TIP3    H225732   1.828   1.726   7.517  0.8934 -1.1171  2.0170
 2849TIP3   OH225733   4.478   0.418   7.352  0.1966 -0.1438  0.1396
 2849TIP3    H125734   4.421   0.418   7.276  1.1782  1.2222 -0.6421
 2849TIP3    H225735   4.419   0.425   7.427 -0.7608 -1.2113 -0.4895
 2850TIP3   OH225736   3.532   4.221   0.356 -0.0476  0.3112  0.7919
 2850TIP3    H125737   3.542   4.256   0.268 -1.0041  2.8120  1.5753
 2850TIP3    H225738   3.621   4.199   0.384  0.4990  1.2668 -0.1358
 2851TIP3   OH225739   1.382   0.287   6.590 -0.2312  0.2317 -0.0492
 2851TIP3    H125740   1.343   0.358   6.538  0.0045 -0.4373 -1.1825
 2851TIP3    H225741   1.316   0.269   6.657 -0.6408  0.9874 -0.2257
 2852TIP3   OH225742   5.189   1.015   7.138  0.3414 -0.0783 -0.2161
 2852TIP3    H125743   5.131   1.002   7.213  0.5444 -1.4302 -0.2611
 2852TIP3    H225744   5.157   1.095   7.096  1.4463  1.9012  2.4142
 2853TIP3   OH225745   4.755   1.107   1.408  0.5209  0.1033 -0.2030
 2853TIP3    H125746   4.666   1.139   1.393 -0.0100 -1.8747 -1.7461
 2853TIP3    H225747   4.777   1.138   1.496 -0.7411  2.6422 -0.6853
 2854TIP3   OH225748   6.615   1.177   1.413 -0.4865  0.2255 -0.3826
 2854TIP3    H125749   6.563   1.167   1.494 -1.2655  1.1659 -0.7319
 2854TIP3    H225750   6.648   1.267   1.418  4.3729 -1.3876  1.6454
 2855TIP3   OH225751   2.301   4.876   7.553  0.7082  0.0133  0.6661
 2855TIP3    H125752   2.339   4.913   7.473 -0.3999  1.1110  0.6230
 2855TIP3    H225753   2.337   4.931   7.623 -1.2452  1.5012  0.5709
 2856TIP3   OH225754   2.882   1.420   0.966 -0.3767 -0.3189  0.2316
 2856TIP3    H125755   2.878   1.329   0.997 -1.2964 -0.3522  0.0147
 2856TIP3    H225756   2.943   1.417   0.892  1.6163 -0.2958  1.7736
 2857TIP3   OH225757   0.943   0.819   1.258  0.0868  0.4761 -0.0519
 2857TIP3    H125758   0.872   0.882   1.242 -0.9896 -1.0555 -1.6078
 2857TIP3    H225759   0.949   0.769   1.177  0.4532 -1.8657  1.3506
 2858TIP3   OH225760   4.788   1.749   1.572  0.2506  0.0232 -0.0472
 2858TIP3    H125761   4.788   1.667   1.622 -0.4545  0.7827  1.2329
 2858TIP3    H225762   4.723   1.734   1.503 -1.4394  0.1886  1.4249
 2859TIP3   OH225763   5.648   5.682   7.254  0.1923  0.1391  0.2732
 2859TIP3    H125764   5.658   5.745   7.183 -0.6669  0.8568  0.7615
 2859TIP3    H225765   5.610   5.733   7.326  1.1341 -0.5460  1.2799
 2860TIP3   OH225766   6.207   1.974   6.783  0.1355  0.2169 -0.0544
 2860TIP3    H125767   6.280   1.930   6.739  1.3307 -0.2920  2.2861
 2860TIP3    H225768   6.249   2.041   6.836 -0.9976 -0.5249  1.8556
 2861TIP3   OH225769   6.486   0.208   6.435  0.6433 -0.1083  0.0033
 2861TIP3    H125770   6.476   0.114   6.450  0.9788 -0.1782 -0.2106
 2861TIP3    H225771   6.579   0.225   6.445  0.6408  0.1344 -0.3598
 2862TIP3   OH225772   5.231   5.715   7.302 -1.2391 -0.2594 -0.6144
 2862TIP3    H125773   5.240   5.619   7.304  0.3078 -0.1400  1.5699
 2862TIP3    H225774   5.149   5.732   7.349  0.1027 -0.4718  2.0023
 2863TIP3   OH225775   4.093   0.937   0.360 -0.0501 -0.5192  0.3878
 2863TIP3    H125776   4.130   1.019   0.327 -1.2131  0.0780  0.5175
 2863TIP3    H225777   4.084   0.952   0.455  0.5680 -1.1394  0.5504
 2864TIP3   OH225778   5.956   2.912   7.508 -0.4330  0.0001 -0.5206
 2864TIP3    H125779   5.893   2.875   7.570  0.1902  1.3018  0.9310
 2864TIP3    H225780   5.906   2.980   7.461 -0.2588  0.7257  0.3198
 2865TIP3   OH225781   0.402   1.332   0.188 -0.5175  0.0268 -0.5760
 2865TIP3    H125782   0.413   1.385   0.109  0.9047  0.0943 -0.3636
 2865TIP3    H225783   0.397   1.242   0.156 -0.3539  0.0881 -0.7793
 2866TIP3   OH225784   3.071   6.446   1.394 -0.1416  0.2901 -1.3171
 2866TIP3    H125785   3.118   6.379   1.345  0.1390 -0.0050 -0.6670
 2866TIP3    H225786   2.983   6.410   1.407 -0.2265  0.3845 -1.6282
 2867TIP3   OH225787   3.244   4.121   5.492  0.0272 -0.4821 -0.5607
 2867TIP3    H125788   3.311   4.153   5.553 -1.1075 -1.8212  1.4959
 2867TIP3    H225789   3.294   4.077   5.423  1.3269  0.6077 -0.3737
 2868TIP3   OH225790   6.027   5.418   7.554  0.0062 -0.0866 -0.4169
 2868TIP3    H125791   5.963   5.386   7.618  0.5882 -0.9039 -0.2223
 2868TIP3    H225792   6.111   5.386   7.587  0.4948  0.7757 -0.7869
 2869TIP3   OH225793   2.145   2.400   0.961  0.0119 -0.4150 -0.2368
 2869TIP3    H125794   2.084   2.326   0.969 -2.5175  1.4905 -0.3668
 2869TIP3    H225795   2.148   2.437   1.049 -1.5324  1.2506 -0.8038
 2870TIP3   OH225796   5.180   2.049   1.107 -0.0468  0.3593 -0.0339
 2870TIP3    H125797   5.199   1.960   1.137  0.7774  0.8231  0.8313
 2870TIP3    H225798   5.088   2.045   1.080 -0.0216 -0.7537 -0.0123
 2871TIP3   OH225799   3.646   0.290   5.939 -0.0211  0.6145 -0.1610
 2871TIP3    H125800   3.719   0.350   5.927  0.4868  0.0815  0.2424
 2871TIP3    H225801   3.639   0.243   5.856 -0.1545  0.9348 -0.3325
 2872TIP3   OH225802   2.586   1.546   1.359  0.4498  0.3619 -0.5154
 2872TIP3    H125803   2.531   1.612   1.316  2.2669  2.0465 -0.3882
 2872TIP3    H225804   2.592   1.475   1.295 -2.6857 -0.4166 -0.1103
 2873TIP3   OH225805   4.291   4.318   7.653  1.1829  0.1375 -0.4692
 2873TIP3    H125806   4.226   4.303   7.721  0.6114  1.3858 -0.7250
 2873TIP3    H225807   4.259   4.269   7.577  1.3932 -0.5677 -0.1139
 2874TIP3   OH225808   4.453   3.857   6.952  0.8638 -0.0456  0.2375
 2874TIP3    H125809   4.400   3.937   6.954 -1.0679 -1.1534 -1.5119
 2874TIP3    H225810   4.451   3.825   7.042 -0.7272  0.4611  0.4306
 2875TIP3   OH225811   3.095   0.418   6.317 -0.0325 -0.2877  0.1808
 2875TIP3    H125812   3.105   0.368   6.398 -1.6443 -1.9894 -0.5644
 2875TIP3    H225813   3.040   0.492   6.341 -0.9228 -1.0518  0.5795
 2876TIP3   OH225814   2.268   5.290   2.090  0.3498  0.2354  0.6143
 2876TIP3    H125815   2.212   5.212   2.083 -0.1255  0.6134  0.0958
 2876TIP3    H225816   2.345   5.268   2.037  0.7195 -0.3019  1.3602
 2877TIP3   OH225817   4.173   4.350   5.555  0.8371 -0.1702  0.0472
 2877TIP3    H125818   4.254   4.392   5.525  0.4208  0.1702 -0.6201
 2877TIP3    H225819   4.170   4.266   5.509  0.3500  0.2220 -0.6575
 2878TIP3   OH225820   6.464   5.064   2.084 -0.6861 -0.3114 -0.4107
 2878TIP3    H125821   6.460   5.008   2.161  1.7519  1.8098  1.4835
 2878TIP3    H225822   6.530   5.024   2.028  0.2068 -0.0278  0.3974
 2879TIP3   OH225823   0.892   3.267   2.732  0.2460 -0.4460  0.2187
 2879TIP3    H125824   0.886   3.355   2.769  1.8947  0.1901 -0.9562
 2879TIP3    H225825   0.838   3.270   2.653  1.4620 -0.0180 -0.6240
 2880TIP3   OH225826   2.487   2.497   5.298 -0.1235  0.3140  0.1053
 2880TIP3    H125827   2.535   2.561   5.351  0.2181 -0.0343  0.2240
 2880TIP3    H225828   2.405   2.483   5.344 -0.6156  1.3702 -0.4116
 2881TIP3   OH225829   6.366   0.549   0.466 -0.1608 -0.0511  0.8442
 2881TIP3    H125830   6.337   0.591   0.385  0.4451  0.6058  0.9629
 2881TIP3    H225831   6.319   0.466   0.468  1.2744 -0.9757 -1.1792
 2882TIP3   OH225832   4.694   5.161   0.049  0.3675 -0.0346  0.4756
 2882TIP3    H125833   4.684   5.086  -0.009  0.5712 -0.4126  0.9245
 2882TIP3    H225834   4.631   5.146   0.120  0.4246  0.2085  0.5809
 2883TIP3   OH225835   3.005   4.183   1.280  0.2760  0.8635 -0.2165
 2883TIP3    H125836   2.970   4.094   1.283 -0.4585  1.0823 -1.5599
 2883TIP3    H225837   3.093   4.172   1.244  0.2205  0.6785 -0.2975
 2884TIP3   OH225838   3.807   4.647   1.476  0.1687  0.1833 -0.7906
 2884TIP3    H125839   3.791   4.655   1.570  0.7030  2.0249 -0.8140
 2884TIP3    H225840   3.728   4.604   1.441 -1.1090  1.6251  0.1890
 2885TIP3   OH225841   4.745   6.031   1.724  0.0030  0.2695  0.4233
 2885TIP3    H125842   4.840   6.019   1.728  0.0894  1.0212  0.6927
 2885TIP3    H225843   4.733   6.125   1.708 -0.6585 -0.0504 -1.1607
 2886TIP3   OH225844   0.056   0.821   1.845 -0.1497 -0.3504 -0.3071
 2886TIP3    H125845  -0.013   0.794   1.785 -1.6647  0.4345  1.0141
 2886TIP3    H225846   0.011   0.874   1.911  1.9316  1.3208 -0.1274
 2887TIP3   OH225847   3.797   2.991   6.589 -0.1930 -0.1511 -0.0377
 2887TIP3    H125848   3.816   2.987   6.495  0.7912  0.9788  0.0913
 2887TIP3    H225849   3.802   2.900   6.618  0.5042 -0.4035 -0.8905
 2888TIP3   OH225850   3.290   4.191   1.261  0.4748  0.2946  0.2190
 2888TIP3    H125851   3.360   4.166   1.322  0.5014  0.5543  0.2986
 2888TIP3    H225852   3.305   4.285   1.246 -0.2182  0.4899  0.7080
 2889TIP3   OH225853   4.655   1.526   0.711  0.4703  0.1670 -0.4124
 2889TIP3    H125854   4.715   1.527   0.636  1.5731 -0.8798  0.4382
 2889TIP3    H225855   4.658   1.437   0.744  0.0587  0.6319  0.9413
 2890TIP3   OH225856   3.891   2.575   6.364  0.0023  0.5948  0.4148
 2890TIP3    H125857   3.934   2.491   6.349 -0.3740  0.3964  0.4419
 2890TIP3    H225858   3.959   2.640   6.345  0.2683  0.2894  0.3068
 2891TIP3   OH225859   0.213   6.510   6.472 -0.1877 -0.0661  0.5624
 2891TIP3    H125860   0.216   6.417   6.497 -0.2634 -0.6289 -1.3452
 2891TIP3    H225861   0.297   6.526   6.430 -0.2123  0.7270  0.7985
 2892TIP3   OH225862   2.599   0.425   6.501  0.4127  0.2326 -0.0887
 2892TIP3    H125863   2.538   0.488   6.462  1.1050  2.4239  2.0893
 2892TIP3    H225864   2.671   0.478   6.533  0.8378 -1.5889  2.3004
 2893TIP3   OH225865   4.682   3.887   1.791  0.1792  0.5066 -0.0512
 2893TIP3    H125866   4.671   3.858   1.882 -2.5260  1.1742 -0.0869
 2893TIP3    H225867   4.603   3.857   1.747  0.5597  1.8429 -1.7331
 2894TIP3   OH225868   1.169   4.558   5.973  0.1431 -0.0873 -0.3473
 2894TIP3    H125869   1.077   4.553   5.948 -0.2228  0.2168  0.8594
 2894TIP3    H225870   1.217   4.548   5.891 -0.9779  0.7291 -1.1299
 2895TIP3   OH225871   2.901   1.933   5.558  0.0588 -0.1723 -0.2319
 2895TIP3    H125872   2.903   2.028   5.571  0.9550 -0.2415  0.2642
 2895TIP3    H225873   2.984   1.913   5.515  1.0621 -1.0053  1.9464
 2896TIP3   OH225874   5.886   6.494   1.961  0.1290 -0.2067  0.2475
 2896TIP3    H125875   5.908   6.558   2.029 -0.2814 -0.8818  1.0441
 2896TIP3    H225876   5.803   6.456   1.991  1.4869 -2.8071  1.0795
 2897TIP3   OH225877   5.840   1.687   1.346  0.0801 -0.4896  0.1978
 2897TIP3    H125878   5.926   1.657   1.318 -0.6175 -0.9095 -1.7165
 2897TIP3    H225879   5.845   1.782   1.342  0.5811 -0.5051  0.4960
 2898TIP3   OH225880   5.672   1.818   6.087 -0.3235  0.3700 -0.0769
 2898TIP3    H125881   5.661   1.763   6.164  1.4441  0.3141  0.1703
 2898TIP3    H225882   5.592   1.803   6.035 -0.5875 -1.1973  0.7205
 2899TIP3   OH225883   3.395   5.845   0.741 -0.3974  0.4443  0.4946
 2899TIP3    H125884   3.333   5.836   0.814 -1.2200  1.8877  0.0141
 2899TIP3    H225885   3.350   5.902   0.679  0.3936 -0.5639 -1.0476
 2900TIP3   OH225886   5.314   6.635   7.180  0.3434  0.4343 -0.4553
 2900TIP3    H125887   5.322   6.643   7.084  0.0805  0.7761 -0.4502
 2900TIP3    H225888   5.220   6.636   7.196  0.3724 -0.1065 -0.2291
 2901TIP3   OH225889   2.414   2.360   7.400 -0.4024  0.5290 -0.5398
 2901TIP3    H125890   2.425   2.455   7.396  0.9558  0.3905 -0.7386
 2901TIP3    H225891   2.353   2.340   7.329  0.5969  1.1084 -1.6109
 2902TIP3   OH225892   3.367   3.535   2.429  0.6436 -0.3033 -0.1249
 2902TIP3    H125893   3.349   3.591   2.504  1.3435  1.5192 -1.2519
 2902TIP3    H225894   3.326   3.580   2.355  2.0726 -0.7626 -1.2398
 2903TIP3   OH225895   4.180   0.719   1.173 -0.0956  0.0284  0.6183
 2903TIP3    H125896   4.212   0.787   1.231 -0.2487  0.8811 -0.2722
 2903TIP3    H225897   4.085   0.724   1.179 -0.1045 -0.3963  0.8724
 2904TIP3   OH225898   4.571   3.952   6.028  0.3196 -0.2507  0.1019
 2904TIP3    H125899   4.492   3.903   6.004  0.3892 -0.2160 -0.1940
 2904TIP3    H225900   4.643   3.904   5.988  0.5411 -0.7657  1.0788
 2905TIP3   OH225901   0.221   2.679   1.542 -0.4263 -0.7132  0.2214
 2905TIP3    H125902   0.239   2.733   1.465 -2.0048  3.1774  2.2884
 2905TIP3    H225903   0.127   2.662   1.537 -0.1509 -2.3283  0.2195
 2906TIP3   OH225904   2.160   1.941   5.299 -0.4115  0.2685 -0.2199
 2906TIP3    H125905   2.069   1.963   5.281 -0.9234  0.8659  2.6100
 2906TIP3    H225906   2.199   2.023   5.330  0.3907 -0.5266  0.9717
 2907TIP3   OH225907   5.807   2.866   1.817 -0.2467  0.3160  0.0222
 2907TIP3    H125908   5.717   2.863   1.847 -0.3001 -0.4707 -0.2128
 2907TIP3    H225909   5.858   2.827   1.889 -0.3078 -0.9934 -0.6200
 2908TIP3   OH225910   0.007   6.423   6.899 -0.5644 -0.5441  0.8071
 2908TIP3    H125911   0.092   6.440   6.939 -0.6614 -1.2888  1.3328
 2908TIP3    H225912  -0.027   6.510   6.877  0.3250 -0.2440  0.5992
 2909TIP3   OH225913   1.879   4.749   7.143  0.1108  0.0085  0.1621
 2909TIP3    H125914   1.945   4.776   7.206 -1.0372  1.1500  0.9409
 2909TIP3    H225915   1.862   4.828   7.090 -0.3221 -0.3754 -0.2830
 2910TIP3   OH225916   6.605   5.405   6.815 -0.1136 -0.1765  0.1699
 2910TIP3    H125917   6.536   5.347   6.849  1.4971 -1.8124  0.8191
 2910TIP3    H225918   6.683   5.379   6.864  1.2031  0.8747 -1.3018
 2911TIP3   OH225919   5.246   3.069   5.886 -0.4133  0.5593  0.1124
 2911TIP3    H125920   5.193   3.067   5.966  1.4952 -0.5988  1.4256
 2911TIP3    H225921   5.226   2.986   5.843 -0.6099  0.6882 -0.0454
 2912TIP3   OH225922   4.953   2.184   0.703 -0.3734 -0.1920  0.1639
 2912TIP3    H125923   4.970   2.139   0.786 -2.4471 -1.7783 -0.2128
 2912TIP3    H225924   4.941   2.114   0.639  1.9294  0.9762 -1.7455
 2913TIP3   OH225925   0.930   5.519   6.553  0.1800  0.4353  0.4298
 2913TIP3    H125926   0.912   5.562   6.637 -2.5901 -1.0185  0.6979
 2913TIP3    H225927   0.877   5.568   6.490 -2.3490 -1.8648  0.5958
 2914TIP3   OH225928   1.321   3.345   6.592 -0.1806 -0.4771 -0.0314
 2914TIP3    H125929   1.416   3.343   6.603 -0.2133  2.0209  1.5032
 2914TIP3    H225930   1.287   3.295   6.666 -0.0968 -0.1898  0.1988
 2915TIP3   OH225931   1.812   5.780   6.326 -0.5407 -0.0361 -0.1841
 2915TIP3    H125932   1.833   5.708   6.385 -0.5744 -0.3719 -0.5713
 2915TIP3    H225933   1.888   5.786   6.268 -1.0100 -0.5160 -0.8730
 2916TIP3   OH225934   1.848   4.453   0.130  0.5999  0.0309  0.2905
 2916TIP3    H125935   1.805   4.458   0.044  0.0493 -2.7765  0.3139
 2916TIP3    H225936   1.922   4.514   0.123  0.6510 -0.2114 -2.2474
 2917TIP3   OH225937   1.345   5.241   6.528  0.2570 -0.7675  0.6389
 2917TIP3    H125938   1.288   5.211   6.457 -0.6012  0.7976  0.6176
 2917TIP3    H225939   1.425   5.189   6.520  0.0684 -0.7944 -1.3192
 2918TIP3   OH225940   0.801   5.497   6.117 -0.1804 -0.0696 -0.3209
 2918TIP3    H125941   0.771   5.556   6.186  0.8815  0.0220  0.0783
 2918TIP3    H225942   0.725   5.441   6.100  0.0398 -1.2764  2.1956
 2919TIP3   OH225943   1.091   6.299   6.823 -0.1598  0.1032  0.5134
 2919TIP3    H125944   1.112   6.340   6.739  0.6185 -0.4704  0.4208
 2919TIP3    H225945   1.022   6.236   6.803  0.8982 -0.9374  0.0624
 2920TIP3   OH225946   5.920   0.241  -0.005 -0.3930 -0.3652  0.0815
 2920TIP3    H125947   5.862   0.302   0.040 -2.1459 -1.0439 -1.1373
 2920TIP3    H225948   5.920   0.163   0.051 -0.1254 -0.1410  0.3996
 2921TIP3   OH225949   2.489   0.492   0.195 -0.2511 -0.3571 -0.6785
 2921TIP3    H125950   2.431   0.500   0.271 -1.6306 -0.7729 -1.6570
 2921TIP3    H225951   2.431   0.498   0.119  1.3719  3.1294 -1.8724
 2922TIP3   OH225952   6.532   0.019   1.624 -0.2951  0.2849  0.3519
 2922TIP3    H125953   6.556   0.006   1.716 -1.3522 -0.9077  0.4828
 2922TIP3    H225954   6.438   0.036   1.626 -0.3335  0.2096 -0.5207
 2923TIP3   OH225955   4.061   4.782   2.053  0.6187 -0.1642 -0.5297
 2923TIP3    H125956   4.013   4.850   2.101  0.5307 -2.0638  2.2830
 2923TIP3    H225957   4.150   4.817   2.044  0.5630  0.3527  0.8039
 2924TIP3   OH225958   1.065   5.697   1.181  0.4015 -0.3156  0.2540
 2924TIP3    H125959   1.032   5.689   1.270 -0.4577 -1.3927 -0.1429
 2924TIP3    H225960   1.083   5.607   1.154  2.1024  0.1058 -0.1425
 2925TIP3   OH225961   4.823   1.977   0.572 -0.0034  0.5455 -0.0045
 2925TIP3    H125962   4.763   1.933   0.511  1.1718  0.4821 -1.1744
 2925TIP3    H225963   4.766   2.018   0.636 -1.2338 -0.8637 -0.1269
 2926TIP3   OH225964   4.445   3.420   6.718 -0.2152  0.3332  0.9489
 2926TIP3    H125965   4.400   3.464   6.646 -0.0336  0.4530  0.9045
 2926TIP3    H225966   4.424   3.327   6.708 -1.8726  0.5617  1.9538
 2927TIP3   OH225967   4.128   2.163   6.621 -0.1083 -0.2258  0.3964
 2927TIP3    H125968   4.061   2.183   6.687  0.4966  1.1209  0.6507
 2927TIP3    H225969   4.086   2.101   6.562 -1.8711  1.1671  0.1043
 2928TIP3   OH225970   4.505   6.369   0.524  0.2893 -0.4517 -0.0208
 2928TIP3    H125971   4.561   6.397   0.451  1.4636  0.6959  1.2659
 2928TIP3    H225972   4.475   6.282   0.499  0.6936 -0.1088 -1.8473
 2929TIP3   OH225973   3.195   3.475   1.134  0.4621  0.4556  0.3841
 2929TIP3    H125974   3.253   3.551   1.143  0.6223  0.0534  4.3702
 2929TIP3    H225975   3.225   3.414   1.201 -3.9873 -0.1479  2.1760
 2930TIP3   OH225976   1.292   2.692   7.654 -0.1002 -0.0987 -0.4920
 2930TIP3    H125977   1.237   2.769   7.642  0.6116  0.1885 -2.2914
 2930TIP3    H225978   1.313   2.664   7.565  1.4177 -1.0971  0.1412
 2931TIP3   OH225979   3.521   2.728   5.892 -0.3010  0.4513 -0.0030
 2931TIP3    H125980   3.556   2.805   5.937 -2.2100  1.5684 -0.3301
 2931TIP3    H225981   3.559   2.653   5.938  0.9114  1.5793  0.8752
 2932TIP3   OH225982   1.187   4.704   0.321  0.4761 -0.1384 -0.1241
 2932TIP3    H125983   1.248   4.778   0.315  0.7972 -0.1884  2.0072
 2932TIP3    H225984   1.222   4.640   0.258  3.0355 -0.4134  1.4250
 2933TIP3   OH225985   1.019   0.210   0.564 -0.0275 -0.1396 -0.0225
 2933TIP3    H125986   1.113   0.205   0.545  0.3470  0.7183  1.4700
 2933TIP3    H225987   0.989   0.119   0.563  1.3028 -0.6411  1.6860
 2934TIP3   OH225988   2.302   1.501   0.368 -0.2299  0.4946 -0.6796
 2934TIP3    H125989   2.215   1.483   0.334 -0.3322 -0.6309  0.1163
 2934TIP3    H225990   2.356   1.428   0.338  0.4031  1.0750 -0.9964
 2935TIP3   OH225991   1.144   3.138   0.593 -0.4399 -0.4801  0.0416
 2935TIP3    H125992   1.096   3.217   0.568 -0.6798 -1.0697 -1.4675
 2935TIP3    H225993   1.161   3.093   0.510  1.5952 -0.9515  0.6709
 2936TIP3   OH225994   6.161   4.051   0.632  0.3561 -0.6753  0.2343
 2936TIP3    H125995   6.173   4.095   0.716  2.0358 -0.1795 -0.2151
 2936TIP3    H225996   6.233   3.988   0.627 -0.0910 -1.1444 -0.5631
 2937TIP3   OH225997   2.133   0.069   6.200 -0.7045  0.3550 -0.4466
 2937TIP3    H125998   2.107   0.096   6.288 -0.7229  1.1243 -0.6779
 2937TIP3    H225999   2.227   0.049   6.207 -0.3103  2.0032 -0.5881
 2938TIP3   OH226000   4.488   3.395   7.267 -0.7042 -0.7579 -0.4694
 2938TIP3    H126001   4.474   3.343   7.188  0.9633 -0.5660 -0.9259
 2938TIP3    H226002   4.518   3.480   7.235 -0.7998 -0.4049  0.3467
 2939TIP3   OH226003   3.669   4.563   7.397 -0.1178  0.2687 -0.4222
 2939TIP3    H126004   3.657   4.656   7.380 -0.6963  0.2165 -0.3270
 2939TIP3    H226005   3.763   4.553   7.411 -0.1032  0.9152  0.0125
 2940TIP3   OH226006   2.379   0.656   7.460  0.5375  0.1284  0.3978
 2940TIP3    H126007   2.416   0.594   7.523 -0.7766 -0.0371  1.0401
 2940TIP3    H226008   2.325   0.715   7.513 -0.7145 -0.1050 -0.5827
 2941TIP3   OH226009   6.284   1.377   5.581  0.1134 -0.6792 -0.1480
 2941TIP3    H126010   6.258   1.300   5.631  0.8843 -0.4635  0.6169
 2941TIP3    H226011   6.361   1.350   5.531 -1.0664 -1.1038 -1.8355
 2942TIP3   OH226012   0.820   4.879   7.442  0.0941  0.4306  0.2607
 2942TIP3    H126013   0.731   4.843   7.451 -0.1546  0.8485 -0.5062
 2942TIP3    H226014   0.832   4.892   7.348  0.7326  0.9749  0.4101
 2943TIP3   OH226015   0.709   5.058   0.741 -0.2081  0.0032 -0.1037
 2943TIP3    H126016   0.622   5.059   0.780  0.9398  0.0987  2.6868
 2943TIP3    H226017   0.722   5.148   0.708 -1.0042  0.0796 -0.2192
 2944TIP3   OH226018   5.282   5.420   0.203  0.0738 -0.0628 -0.4780
 2944TIP3    H126019   5.193   5.441   0.176 -0.5903 -0.8229  0.9938
 2944TIP3    H226020   5.330   5.406   0.121 -1.8826 -2.5392 -1.3133
 2945TIP3   OH226021   5.838   5.883   6.673 -0.1332 -0.1296  0.0732
 2945TIP3    H126022   5.902   5.953   6.662  0.3287 -0.7179 -1.1178
 2945TIP3    H226023   5.883   5.817   6.726  0.1818 -0.4436 -0.5753
 2946TIP3   OH226024   5.168   3.730   0.295 -0.9929 -0.0156 -0.2261
 2946TIP3    H126025   5.184   3.782   0.216 -0.6148  1.0853  0.5504
 2946TIP3    H226026   5.198   3.642   0.273 -0.1321  0.4673 -1.0433
 2947TIP3   OH226027   4.902   2.234   7.625  0.0240  0.2704 -0.2658
 2947TIP3    H126028   4.808   2.234   7.645  0.6179 -2.7518  3.9526
 2947TIP3    H226029   4.925   2.326   7.616 -2.6745  1.4631  3.0696
 2948TIP3   OH226030   1.295   4.042   6.852 -0.2243 -0.1382 -0.2077
 2948TIP3    H126031   1.355   3.990   6.905 -0.3864 -0.5530 -0.4177
 2948TIP3    H226032   1.208   4.014   6.880 -0.3256  0.5378  0.1724
 2949TIP3   OH226033   4.316   2.433   2.201  0.3693  0.7418 -0.1978
 2949TIP3    H126034   4.226   2.448   2.230  0.3872  1.6716 -0.6015
 2949TIP3    H226035   4.350   2.367   2.262 -0.8125 -0.1825 -0.4942
 2950TIP3   OH226036   1.142   2.473   7.733  0.6748 -0.1261  0.1831
 2950TIP3    H126037   1.185   2.459   7.817  0.3118  1.0052  0.5735
 2950TIP3    H226038   1.186   2.549   7.696 -0.4705  0.6022  0.2559
 2951TIP3   OH226039   2.793   5.821   5.508  0.3929 -0.0768 -0.1925
 2951TIP3    H126040   2.783   5.899   5.562  1.6063  0.8612 -1.2851
 2951TIP3    H226041   2.723   5.762   5.538 -0.8347  1.5951  0.3352
 2952TIP3   OH226042   4.135   4.400   6.340 -0.2524  0.2708  0.2005
 2952TIP3    H126043   4.152   4.350   6.260 -2.2681  0.5328 -0.4456
 2952TIP3    H226044   4.127   4.491   6.311 -3.1695  0.1359  0.2358
 2953TIP3   OH226045   1.519   0.637   1.111  0.4219  0.0545  0.0597
 2953TIP3    H126046   1.522   0.679   1.025 -2.0535 -2.7685 -1.5857
 2953TIP3    H226047   1.444   0.679   1.155 -0.5560 -0.8911 -0.6446
 2954TIP3   OH226048   6.030   2.217   6.289  0.2961 -0.0587 -0.1735
 2954TIP3    H126049   6.053   2.262   6.370 -2.0298  2.3650 -0.7506
 2954TIP3    H226050   6.102   2.237   6.229  0.6912  0.4246  0.4495
 2955TIP3   OH226051   0.681   4.096   7.087  0.0737  0.3628  0.8419
 2955TIP3    H126052   0.642   4.179   7.114 -1.8285 -0.1268 -0.2259
 2955TIP3    H226053   0.633   4.030   7.137  1.2355 -0.1512  1.3184
 2956TIP3   OH226054   0.638   4.831   7.202 -0.8379 -0.1148  0.2613
 2956TIP3    H126055   0.632   4.745   7.242  1.1386  0.7844  2.7899
 2956TIP3    H226056   0.727   4.837   7.169 -1.0006  0.9062 -0.0530
 2957TIP3   OH226057   1.110   5.408   7.474  0.0805  0.2289  0.4585
 2957TIP3    H126058   1.151   5.410   7.561 -1.1862  0.4684  1.0795
 2957TIP3    H226059   1.177   5.373   7.416  0.8472 -0.2388  1.5978
 2958TIP3   OH226060   1.507   0.074   0.867  0.3467  0.1647  0.1698
 2958TIP3    H126061   1.568   0.107   0.933  1.0233  1.4425 -1.0243
 2958TIP3    H226062   1.551   0.092   0.784 -0.4856 -1.3849 -0.6377
 2959TIP3   OH226063   4.238   5.963   0.973 -0.6159 -0.4889  0.3247
 2959TIP3    H126064   4.208   5.872   0.963  0.8892 -1.1707  1.5707
 2959TIP3    H226065   4.249   5.994   0.883 -2.4044 -1.0621 -0.1445
 2960TIP3   OH226066   2.699   2.496   2.122 -0.2834  0.1834 -0.3336
 2960TIP3    H126067   2.776   2.527   2.074  0.9449 -0.8426  0.9036
 2960TIP3    H226068   2.659   2.576   2.158  1.1900  0.6150  0.4296
 2961TIP3   OH226069   0.262   6.434   5.723 -0.2654  0.7532  0.2643
 2961TIP3    H126070   0.225   6.425   5.811 -1.6035  0.6845 -0.2828
 2961TIP3    H226071   0.205   6.497   5.679  0.8704  1.4121 -0.3144
 2962TIP3   OH226072   0.626   1.724   7.001  0.0873 -0.5782  0.0004
 2962TIP3    H126073   0.706   1.734   6.949  0.9199 -1.9606  0.9676
 2962TIP3    H226074   0.654   1.732   7.092 -1.0269 -0.2381  0.3347
 2963TIP3   OH226075   4.976   1.597   7.282  1.0010  0.0964  0.3253
 2963TIP3    H126076   5.029   1.675   7.266  1.9521 -0.2243  1.7176
 2963TIP3    H226077   5.039   1.526   7.292  0.3430 -0.3030  2.0239
 2964TIP3   OH226078   4.707   4.357   7.107 -0.3974  0.0154 -0.0152
 2964TIP3    H126079   4.729   4.280   7.161  0.4290  0.1245 -0.1879
 2964TIP3    H226080   4.687   4.320   7.021  1.1636  0.0685 -0.4291
 2965TIP3   OH226081   0.365   6.206   0.780  0.4348 -0.2955  0.2427
 2965TIP3    H126082   0.367   6.116   0.747  1.7304 -0.3920  0.5212
 2965TIP3    H226083   0.435   6.250   0.733 -0.1967  0.5751  0.1116
 2966TIP3   OH226084   0.218   3.627   0.734 -0.0021 -0.3906  0.4225
 2966TIP3    H126085   0.156   3.558   0.757  1.1511 -1.8520 -0.6369
 2966TIP3    H226086   0.233   3.615   0.640  0.9503  0.7136  0.4153
 2967TIP3   OH226087   4.715   4.248   6.865  0.3707 -0.1253  0.1108
 2967TIP3    H126088   4.802   4.269   6.832 -0.1423  0.6079 -0.8427
 2967TIP3    H226089   4.710   4.152   6.862  0.9685 -0.1496 -0.2753
 2968TIP3   OH226090   3.387   5.176   1.350 -0.4526  0.2679 -0.0092
 2968TIP3    H126091   3.385   5.114   1.422  2.5168 -0.8318 -0.7071
 2968TIP3    H226092   3.312   5.233   1.364 -1.0901 -1.1186  2.8092
 2969TIP3   OH226093   3.999   4.015   0.192  0.4921 -0.1207  0.5471
 2969TIP3    H126094   4.027   4.099   0.230 -0.4172 -0.2881  1.6397
 2969TIP3    H226095   3.989   3.957   0.268 -1.0628 -0.5649  0.0401
 2970TIP3   OH226096   6.619   0.426   0.712  0.2227  0.3430 -0.1837
 2970TIP3    H126097   6.586   0.479   0.786 -1.6077  0.5109 -1.0593
 2970TIP3    H226098   6.709   0.406   0.736 -0.3204  0.3449  2.1369
 2971TIP3   OH226099   6.125   6.535   7.062 -0.2883  0.3431 -0.5815
 2971TIP3    H126100   6.185   6.486   7.005  1.6556  1.3654  0.4747
 2971TIP3    H226101   6.143   6.627   7.041 -1.9980  0.6864 -0.6853
 2972TIP3   OH226102   5.412   5.218   1.236  0.0537 -0.3181  0.7232
 2972TIP3    H126103   5.399   5.195   1.328 -0.3299 -2.2242  0.2409
 2972TIP3    H226104   5.339   5.175   1.190  1.8946 -2.0063 -0.8137
 2973TIP3   OH226105   1.511   3.919   7.009 -0.1007 -0.7581 -0.2362
 2973TIP3    H126106   1.597   3.913   6.969 -0.1830  1.2736 -0.7975
 2973TIP3    H226107   1.529   3.932   7.102  0.1622 -1.4987 -0.1781
 2974TIP3   OH226108   2.034   3.120   2.546 -0.0157 -0.3295  0.4371
 2974TIP3    H126109   2.032   3.181   2.620 -1.0568  0.0016  0.1546
 2974TIP3    H226110   1.954   3.068   2.556  0.0290 -0.5357 -0.2476
 2975TIP3   OH226111   3.073   6.371   0.713  0.3228  0.1450  0.0708
 2975TIP3    H126112   3.007   6.425   0.756  0.7052 -0.0127  0.8629
 2975TIP3    H226113   3.124   6.434   0.660  0.5172  0.5055  0.6754
 2976TIP3   OH226114   0.499   5.354   6.657  0.2728  0.1325  0.3751
 2976TIP3    H126115   0.425   5.295   6.646  0.4599 -0.2205  0.9375
 2976TIP3    H226116   0.486   5.423   6.592 -1.1593  0.7117  1.2470
 2977TIP3   OH226117   1.871   1.566   1.406 -0.0736 -0.3492  0.2325
 2977TIP3    H126118   1.796   1.551   1.348 -0.2541  0.5034  0.2210
 2977TIP3    H226119   1.939   1.508   1.373 -0.3351 -0.2386 -0.5283
 2978TIP3   OH226120   5.244   4.322   0.503  0.3699  0.3181 -0.1404
 2978TIP3    H126121   5.182   4.323   0.430 -1.4343 -2.5443  1.2123
 2978TIP3    H226122   5.330   4.314   0.461 -0.2186  2.6648 -1.9994
 2979TIP3   OH226123   4.500   0.968   1.160 -0.4462  0.2030  0.2743
 2979TIP3    H126124   4.404   0.960   1.155 -0.3869 -0.0065 -0.6540
 2979TIP3    H226125   4.514   1.044   1.216 -1.1223 -1.1827  2.4615
 2980TIP3   OH226126   5.772   4.407   7.184  0.4638 -0.0155 -0.4305
 2980TIP3    H126127   5.816   4.405   7.269  0.5147 -0.4003 -0.4677
 2980TIP3    H226128   5.841   4.433   7.122  0.3555  0.5643 -0.3117
 2981TIP3   OH226129   4.662   4.498   1.059  0.1371 -0.1360 -0.2053
 2981TIP3    H126130   4.669   4.463   1.148  1.8838  0.1556 -0.1815
 2981TIP3    H226131   4.743   4.469   1.016 -0.6292 -0.1884 -1.6842
 2982TIP3   OH226132   3.981   5.358   6.525  0.4633  0.0846  0.2238
 2982TIP3    H126133   3.955   5.270   6.497  0.3850  0.0183  0.5026
 2982TIP3    H226134   4.076   5.354   6.532  0.4447 -0.0318  0.4176
 2983TIP3   OH226135   4.921   4.259   6.137 -0.8429 -0.5529  0.2429
 2983TIP3    H126136   4.932   4.165   6.122  0.7306 -0.2683 -0.6945
 2983TIP3    H226137   4.956   4.273   6.225  0.0450 -0.6924 -0.0735
 2984TIP3   OH226138   4.811   4.701   5.542 -0.0840 -0.2216 -0.4564
 2984TIP3    H126139   4.726   4.661   5.525 -0.2490 -0.4320  0.7643
 2984TIP3    H226140   4.851   4.712   5.456 -0.6897 -1.5768 -0.9200
 2985TIP3   OH226141   4.790   2.417   6.815 -0.3053 -0.3531 -0.8155
 2985TIP3    H126142   4.884   2.401   6.803 -0.2446 -0.2672 -0.4526
 2985TIP3    H226143   4.747   2.349   6.764 -0.0536 -1.5973  0.5718
 2986TIP3   OH226144   2.723   1.004   5.320  0.1988 -0.2198  0.9051
 2986TIP3    H126145   2.773   1.079   5.286  0.0582 -0.6880 -0.4015
 2986TIP3    H226146   2.641   1.041   5.350  0.2322  0.1968  0.4982
 2987TIP3   OH226147   5.940   4.572   6.668  0.2005  0.0361  0.3574
 2987TIP3    H126148   5.874   4.637   6.645 -0.2536 -0.3283  0.6106
 2987TIP3    H226149   6.006   4.579   6.599 -0.3093  0.1100 -0.1262
 2988TIP3   OH226150   0.149   5.311   6.342 -0.4729  0.0013 -0.0954
 2988TIP3    H126151   0.138   5.406   6.352 -0.9744 -0.0127 -0.5409
 2988TIP3    H226152   0.239   5.295   6.371 -0.4797  0.5725  0.2589
 2989TIP3   OH226153   2.746   5.976   6.030 -0.0024 -0.0544 -0.1921
 2989TIP3    H126154   2.689   6.004   5.958  2.4299  0.4135 -2.0865
 2989TIP3    H226155   2.712   5.891   6.056 -2.5552  0.9242 -0.0192
 2990TIP3   OH226156   1.903   6.066   0.537 -0.1687  1.0345 -0.2431
 2990TIP3    H126157   1.895   6.095   0.446  0.3870 -0.1329 -0.6950
 2990TIP3    H226158   1.864   6.136   0.588  0.3302  2.1454 -1.3182
 2991TIP3   OH226159   3.000   1.863   1.198 -0.1427 -0.4014  0.3239
 2991TIP3    H126160   3.038   1.896   1.116  0.2772  0.7695  0.9625
 2991TIP3    H226161   2.908   1.886   1.193  0.1701  1.1017  0.8250
 2992TIP3   OH226162   3.506   4.731   0.700 -0.4742 -0.4993 -0.2505
 2992TIP3    H126163   3.534   4.788   0.628  0.5571  0.4587  0.8647
 2992TIP3    H226164   3.587   4.693   0.733 -0.6900  0.4766  1.5363
 2993TIP3   OH226165   5.830   4.257   5.929 -0.0736 -0.0631 -0.1581
 2993TIP3    H126166   5.841   4.164   5.911  1.4204 -0.3503  1.9440
 2993TIP3    H226167   5.791   4.261   6.016 -1.6639  1.2950 -0.8675
 2994TIP3   OH226168   4.099   1.852   5.899 -0.2143 -0.1540 -0.6549
 2994TIP3    H126169   4.054   1.771   5.924 -1.2484 -0.2131 -2.4944
 2994TIP3    H226170   4.183   1.849   5.944 -1.2854 -0.9635  1.4087
 2995TIP3   OH226171   1.706   1.796   4.465 -0.3069 -0.6997 -0.1163
 2995TIP3    H126172   1.725   1.884   4.499 -0.6575  0.2691 -2.2328
 2995TIP3    H226173   1.623   1.772   4.506  0.0928 -0.3327  0.9583
 2996TIP3   OH226174   3.577   1.632   0.194 -0.0036  0.4646  0.4483
 2996TIP3    H126175   3.550   1.678   0.115 -0.2185  0.9360  0.7925
 2996TIP3    H226176   3.642   1.688   0.235 -0.4655  0.5993  1.0110
 2997TIP3   OH226177   4.760   1.728   7.708 -0.0074  0.4149  0.2207
 2997TIP3    H126178   4.806   1.810   7.688 -0.5163  0.4750 -0.7409
 2997TIP3    H226179   4.753   1.683   7.624 -1.3546  0.2279  0.4106
 2998TIP3   OH226180   4.359   2.531   7.501  0.7045 -0.5310 -0.2176
 2998TIP3    H126181   4.366   2.439   7.477 -0.3560 -0.8837  0.7448
 2998TIP3    H226182   4.417   2.541   7.576 -0.4051 -0.8231  0.7070
 2999TIP3   OH226183   1.604   0.269   6.054  0.4375  0.6893 -0.7576
 2999TIP3    H126184   1.675   0.317   6.096  1.1755  0.3542 -1.5904
 2999TIP3    H226185   1.590   0.314   5.971 -1.0358  1.3727 -0.1722
 3000TIP3   OH226186   4.631   4.900   1.228  0.6001 -1.2550 -0.4510
 3000TIP3    H126187   4.711   4.868   1.271 -0.1499 -2.0293  0.4211
 3000TIP3    H226188   4.621   4.989   1.260 -0.0384 -1.8757  1.1676
 3001TIP3   OH226189   2.353   1.280   6.204 -0.1785 -0.3435  0.1122
 3001TIP3    H126190   2.417   1.347   6.179  1.6608 -1.1983  2.1069
 3001TIP3    H226191   2.317   1.313   6.287 -2.0000 -0.1273 -0.7363
 3002TIP3   OH226192   3.899   4.140   1.806  0.1518  0.3319  0.3174
 3002TIP3    H126193   3.976   4.195   1.821 -0.0498  0.5789  0.4568
 3002TIP3    H226194   3.825   4.199   1.819 -0.0677  1.1120 -3.3813
 3003TIP3   OH226195   1.475   5.672   1.260  0.5661 -0.3254 -0.1231
 3003TIP3    H126196   1.541   5.650   1.195  0.6303 -1.3128  0.2516
 3003TIP3    H226197   1.436   5.754   1.229  1.0413 -0.4396 -1.0497
 3004TIP3   OH226198   0.023   5.758   6.782  0.4519 -0.4086  0.0301
 3004TIP3    H126199   0.047   5.679   6.830 -0.9559  0.0063  1.5029
 3004TIP3    H226200   0.104   5.808   6.776  0.9982 -1.2022  0.5845
 3005TIP3   OH226201   1.555   2.524   7.581 -0.1214  0.1609  0.2552
 3005TIP3    H126202   1.635   2.490   7.619  0.3052 -1.5034 -1.9063
 3005TIP3    H226203   1.487   2.505   7.645  0.5850 -2.2827  0.3749
 3006TIP3   OH226204   0.060   1.421   0.248  0.2822  0.2198 -0.1824
 3006TIP3    H126205   0.098   1.503   0.279  3.0697 -1.4002  1.0148
 3006TIP3    H226206   0.087   1.415   0.156 -1.4059  1.3787 -0.8012
 3007TIP3   OH226207   0.043   5.168   5.956  0.0436  0.4985 -0.2563
 3007TIP3    H126208   0.028   5.076   5.978 -0.1868  0.6101  0.0596
 3007TIP3    H226209  -0.031   5.192   5.901 -0.6478  0.8828  0.8138
 3008TIP3   OH226210   4.345   2.268   7.148 -0.4549 -0.9530  0.2624
 3008TIP3    H126211   4.319   2.196   7.206  0.0364 -1.6920 -0.4061
 3008TIP3    H226212   4.264   2.315   7.131 -1.0859 -2.2527 -0.4914
 3009TIP3   OH226213   1.453   6.257   6.352  0.6187 -0.4526  0.6747
 3009TIP3    H126214   1.542   6.262   6.387  0.3995  0.7696  1.0871
 3009TIP3    H226215   1.420   6.347   6.356  0.2298 -0.4149 -1.7588
 3010TIP3   OH226216   4.976   5.089   0.119  0.1088  0.0909  0.2462
 3010TIP3    H126217   4.887   5.120   0.099  0.4871 -0.0963 -2.0069
 3010TIP3    H226218   5.023   5.099   0.036  1.5644 -1.9922  0.7603
 3011TIP3   OH226219   0.436   6.307   1.297 -0.3088  0.5561 -0.3935
 3011TIP3    H126220   0.410   6.304   1.205 -3.0591 -0.5076  0.3371
 3011TIP3    H226221   0.423   6.398   1.323  0.2415  0.8056 -0.9641
 3012TIP3   OH226222   0.692   5.305   1.879  0.3968  0.0402 -0.6437
 3012TIP3    H126223   0.694   5.284   1.786 -0.5743  1.0783 -0.9211
 3012TIP3    H226224   0.623   5.372   1.888  0.0878 -0.4297  0.8951
 3013TIP3   OH226225   5.524   6.026   0.417  0.1284 -0.0031 -0.2308
 3013TIP3    H126226   5.446   6.066   0.378 -0.5621 -0.9906  0.1260
 3013TIP3    H226227   5.525   5.937   0.383 -1.0906 -1.2691  2.7322
 3014TIP3   OH226228   0.171   1.482   0.616 -0.0290  0.0998  0.2678
 3014TIP3    H126229   0.232   1.426   0.664  1.6333  1.8082  0.2474
 3014TIP3    H226230   0.091   1.482   0.670  0.4423 -1.0913  0.9997
 3015TIP3   OH226231   4.195   1.596   6.707 -0.1020 -0.4743 -0.3411
 3015TIP3    H126232   4.126   1.558   6.651  0.0874 -0.9077 -0.2879
 3015TIP3    H226233   4.203   1.534   6.779  0.6203 -0.6323 -0.5541
 3016TIP3   OH226234   1.643   2.624   5.837 -0.3482 -0.4540  0.6346
 3016TIP3    H126235   1.598   2.576   5.768  0.4528 -0.1488 -0.1139
 3016TIP3    H226236   1.671   2.556   5.899 -0.9855 -0.7350  0.6261
 3017TIP3   OH226237   2.334   0.514   0.413  0.6392 -0.0133  0.1660
 3017TIP3    H126238   2.333   0.494   0.506  1.4867 -2.0286 -0.2086
 3017TIP3    H226239   2.311   0.607   0.408  0.6154  0.1433  2.3612
 3018TIP3   OH226240   1.231   0.291   1.493 -0.3660  0.0202  0.4752
 3018TIP3    H126241   1.140   0.290   1.524 -0.8154  2.3849 -0.6174
 3018TIP3    H226242   1.228   0.337   1.409  1.9360  0.7989  0.7529
 3019TIP3   OH226243   2.603   6.235   1.553  0.7326  0.3790  0.3055
 3019TIP3    H126244   2.598   6.140   1.548  2.8731  0.1366  1.4826
 3019TIP3    H226245   2.515   6.262   1.579  0.1341 -1.2799  0.1391
 3020TIP3   OH226246   4.457   4.238   7.222  0.3319 -0.1146  0.1505
 3020TIP3    H126247   4.463   4.317   7.276  1.6211  1.4550 -2.1513
 3020TIP3    H226248   4.541   4.194   7.234  0.3609 -0.1216 -0.0752
 3021TIP3   OH226249   1.399   4.159   0.925 -0.4647  0.7464  0.3112
 3021TIP3    H126250   1.439   4.206   0.851  1.5439 -0.3620  0.6165
 3021TIP3    H226251   1.437   4.201   1.002  0.6287 -0.7151  0.6041
 3022TIP3   OH226252   0.548   2.854   0.399  0.0347 -0.4301 -0.4542
 3022TIP3    H126253   0.513   2.818   0.481 -0.3440 -0.7838 -0.7689
 3022TIP3    H226254   0.606   2.924   0.428 -0.6573 -0.0592  0.1046
 3023TIP3   OH226255   3.511   3.477   7.000  0.5167 -0.0738  0.1353
 3023TIP3    H126256   3.493   3.564   7.035  1.2556 -0.4920  1.6528
 3023TIP3    H226257   3.567   3.436   7.066 -0.3090 -1.9167 -0.2531
 3024TIP3   OH226258   0.263   0.851   7.742 -0.4410 -0.0444  0.1535
 3024TIP3    H126259   0.207   0.852   7.820 -0.3640  0.7143  0.2075
 3024TIP3    H226260   0.296   0.761   7.737 -0.7892 -0.2116  0.7452
 3025TIP3   OH226261   4.893   5.116   1.280 -0.4643 -0.5119 -0.5600
 3025TIP3    H126262   4.862   5.096   1.368 -1.1113 -2.3307 -1.1693
 3025TIP3    H226263   4.813   5.125   1.228 -0.0775 -2.2274 -1.5111
 3026TIP3   OH226264   2.645   3.119   7.088 -0.1023 -0.1176  0.4834
 3026TIP3    H126265   2.611   3.205   7.066  0.2167  0.3200  1.5940
 3026TIP3    H226266   2.606   3.099   7.174 -1.0939 -1.6047 -0.2717
 3027TIP3   OH226267   4.387   1.549   1.314  0.8018  0.3129  0.2298
 3027TIP3    H126268   4.321   1.554   1.245 -0.0868  0.8453  1.0946
 3027TIP3    H226269   4.359   1.476   1.368  1.9635 -0.6497 -0.4105
 3028TIP3   OH226270   4.965   2.069   1.789 -0.0268 -0.1901 -0.2909
 3028TIP3    H126271   4.960   2.086   1.695  0.1413  3.2895  0.1828
 3028TIP3    H226272   4.880   2.096   1.823  0.8918  1.4955  0.8324
 3029TIP3   OH226273   6.424   4.680   1.348  0.1077 -0.1250  0.6657
 3029TIP3    H126274   6.445   4.648   1.436 -1.0929 -1.6732  0.4297
 3029TIP3    H226275   6.440   4.774   1.353  2.2974 -0.5041  1.8443
 3030TIP3   OH226276   4.198   4.623   6.210  1.1640 -0.4662 -0.4341
 3030TIP3    H126277   4.197   4.595   6.118 -0.6610  1.1587 -0.9808
 3030TIP3    H226278   4.286   4.658   6.224  0.8973  1.1120 -2.2310
 3031TIP3   OH226279   3.318   2.000   7.374 -0.0037  0.0060  0.8287
 3031TIP3    H126280   3.330   1.957   7.290 -1.8662  0.5684  0.2317
 3031TIP3    H226281   3.354   2.088   7.361  2.2812 -0.7497  1.5415
 3032TIP3   OH226282   5.401   5.591   1.391  0.6646 -0.0364 -0.3865
 3032TIP3    H126283   5.413   5.536   1.314  3.0289 -1.5619  0.9396
 3032TIP3    H226284   5.448   5.545   1.461  0.9889  2.6585  1.3170
 3033TIP3   OH226285   1.471   4.269   7.636 -0.0087 -0.0417 -0.2755
 3033TIP3    H126286   1.504   4.187   7.600 -1.0650  0.2222 -1.9370
 3033TIP3    H226287   1.392   4.244   7.684  0.5911 -0.2003  0.6450
 3034TIP3   OH226288   6.563   4.655   6.288  0.4241  0.0022  0.0695
 3034TIP3    H126289   6.609   4.597   6.227 -2.1983 -2.8204  0.5143
 3034TIP3    H226290   6.499   4.700   6.234  1.0703  0.9617  0.0780
 3035TIP3   OH226291   3.353   5.231   7.254  0.0449  0.1551  1.0505
 3035TIP3    H126292   3.427   5.277   7.294  0.5170 -0.9081  1.4367
 3035TIP3    H226293   3.344   5.271   7.168  2.6532 -1.2695 -0.0166
 3036TIP3   OH226294   2.085   0.550   7.211 -0.3377  0.1460 -0.3367
 3036TIP3    H126295   2.119   0.470   7.252  0.4130  0.2432 -0.7499
 3036TIP3    H226296   1.998   0.561   7.250 -0.6406 -1.1105 -0.5859
 3037TIP3   OH226297   5.159   4.012   6.211 -0.0794 -0.0208  0.1320
 3037TIP3    H126298   5.171   4.094   6.258 -0.8870  0.6801 -0.8455
 3037TIP3    H226299   5.245   3.970   6.214  0.3052  0.7827  0.7794
 3038TIP3   OH226300   6.298   4.851   0.928 -0.1002  0.3603  0.3746
 3038TIP3    H126301   6.259   4.888   0.848 -0.7189  0.9304  0.9305
 3038TIP3    H226302   6.225   4.806   0.971  0.3410 -0.3612  0.3907
 3039TIP3   OH226303   3.023   0.375   6.604 -0.2263 -0.0802  0.0389
 3039TIP3    H126304   3.091   0.381   6.671 -0.5715  0.6933  0.3359
 3039TIP3    H226305   3.026   0.284   6.574  2.2025  0.3621 -1.2884
 3040TIP3   OH226306   3.701   1.278   1.346  0.5634  0.0283  0.3695
 3040TIP3    H126307   3.793   1.251   1.346  0.5280 -0.1892 -1.5644
 3040TIP3    H226308   3.681   1.297   1.255 -2.1417 -2.8131  0.1922
 3041TIP3   OH226309   2.876   4.793   0.106 -0.0565 -0.1513 -0.2328
 3041TIP3    H126310   2.836   4.832   0.184 -1.6866 -0.1844 -1.0217
 3041TIP3    H226311   2.922   4.716   0.140  2.3669  1.7410  1.1994
 3042TIP3   OH226312   0.209   6.254   1.537  0.0941  0.1807 -0.2174
 3042TIP3    H126313   0.205   6.246   1.442  2.6553 -1.2089 -0.3016
 3042TIP3    H226314   0.193   6.165   1.569 -1.4452  0.7642  0.7317
 3043TIP3   OH226315   6.292   5.517   0.660 -0.5990  0.2743  0.6482
 3043TIP3    H126316   6.208   5.562   0.658 -0.1902  1.0885  1.0654
 3043TIP3    H226317   6.314   5.502   0.568 -1.4815 -0.5061  0.5519
 3044TIP3   OH226318   0.993   6.559   0.548  0.5144 -0.2319 -0.3292
 3044TIP3    H126319   1.027   6.538   0.461  2.2003 -0.3157  0.3111
 3044TIP3    H226320   1.069   6.550   0.606 -0.5232  0.0429  1.1198
 3045TIP3   OH226321   2.275   2.293   7.183 -0.7269 -0.0736 -0.3766
 3045TIP3    H126322   2.202   2.251   7.228  0.0156 -0.6143  0.3608
 3045TIP3    H226323   2.316   2.223   7.133  2.9498 -1.5059  3.9162
 3046TIP3   OH226324   2.466   2.074   1.900  0.7884 -0.1875  0.4656
 3046TIP3    H126325   2.424   2.053   1.984  0.5717  0.3183  0.4873
 3046TIP3    H226326   2.557   2.094   1.923  0.6475  0.2784  0.6252
 3047TIP3   OH226327   3.565   2.619   7.402  0.0171  0.7841  0.1636
 3047TIP3    H126328   3.613   2.557   7.457 -1.7604 -1.8236 -1.0236
 3047TIP3    H226329   3.539   2.689   7.461  1.7197  0.2119  1.6774
 3048TIP3   OH226330   0.462   1.297   1.422 -0.2641  0.3276 -0.1718
 3048TIP3    H126331   0.432   1.348   1.347 -1.7301 -1.3709 -0.8211
 3048TIP3    H226332   0.421   1.338   1.498  0.3759  1.4120 -0.3912
 3049TIP3   OH226333   2.582   4.217   7.350 -0.6898 -0.3958  0.2713
 3049TIP3    H126334   2.572   4.311   7.364  2.1024 -0.1054  0.9268
 3049TIP3    H226335   2.571   4.204   7.256 -0.5543  0.6796  0.1024
 3050TIP3   OH226336   3.502   4.171   5.594 -0.2730  0.0614 -0.2223
 3050TIP3    H126337   3.546   4.087   5.583  0.0518  0.1025  0.6494
 3050TIP3    H226338   3.565   4.225   5.641 -0.9560  0.3702  0.3757
 3051TIP3   OH226339   5.214   3.314   7.682 -0.2630 -0.5759 -0.2222
 3051TIP3    H126340   5.219   3.287   7.591  0.4870 -0.2845 -0.2745
 3051TIP3    H226341   5.158   3.392   7.681  0.5424  0.0007 -0.5690
 3052TIP3   OH226342   1.028   2.885   6.793  0.1394 -0.5725  0.1950
 3052TIP3    H126343   0.990   2.804   6.827 -2.5111  0.2998 -0.3971
 3052TIP3    H226344   1.064   2.861   6.708 -0.4860 -1.1779  0.0923
 3053TIP3   OH226345   0.985   5.821   7.333 -0.1087  0.3107 -0.3430
 3053TIP3    H126346   1.041   5.796   7.407 -0.3105  0.9818  0.0462
 3053TIP3    H226347   0.922   5.750   7.325  0.5226 -0.2367 -0.4959
 3054TIP3   OH226348   0.245   3.144   0.638 -0.4087  0.3298  0.3032
 3054TIP3    H126349   0.316   3.208   0.635  0.0343 -0.1698 -0.2836
 3054TIP3    H226350   0.188   3.168   0.565 -0.7510  0.6211  0.6628
 3055TIP3   OH226351   0.306   6.045   5.932  0.0347  0.7498  0.0405
 3055TIP3    H126352   0.292   6.006   6.018 -1.0830  1.9096  0.4070
 3055TIP3    H226353   0.261   5.986   5.872 -0.7318  0.8870  0.4680
 3056TIP3   OH226354   4.497   2.759   6.066  0.4004  1.3144 -0.4880
 3056TIP3    H126355   4.402   2.755   6.066  0.3992  1.1858  0.1976
 3056TIP3    H226356   4.524   2.711   5.988  0.0152 -1.7782  1.1497
 3057TIP3   OH226357   5.785   4.784   2.039  0.0376 -0.1028  0.5366
 3057TIP3    H126358   5.856   4.837   2.076  0.9406 -0.2598 -0.8981
 3057TIP3    H226359   5.745   4.841   1.973 -0.1535 -0.5758  0.2437
 3058TIP3   OH226360   5.368   4.465   6.933  0.4849  0.3299 -0.1626
 3058TIP3    H126361   5.457   4.473   6.967  0.2381 -0.7289  0.8086
 3058TIP3    H226362   5.334   4.385   6.974 -0.3169 -0.2486 -1.8751
 3059TIP3   OH226363   2.819   0.267   0.427 -0.4737  0.5286  0.1180
 3059TIP3    H126364   2.896   0.295   0.378  0.2834 -0.7286  0.5223
 3059TIP3    H226365   2.854   0.238   0.511 -0.9241 -2.7143 -0.6517
 3060TIP3   OH226366   3.809   2.418   1.955  0.1859 -0.2772 -0.2809
 3060TIP3    H126367   3.855   2.365   2.020 -0.8290 -0.9079 -0.0486
 3060TIP3    H226368   3.726   2.441   1.997  0.2510  0.8078 -0.7021
 3061TIP3   OH226369   1.358   1.396   7.055  0.3368 -0.5717 -0.4685
 3061TIP3    H126370   1.265   1.406   7.035  0.4844  1.0548 -0.4706
 3061TIP3    H226371   1.389   1.329   6.992 -1.0894 -2.2371  0.5175
 3062TIP3   OH226372   2.457   1.352   0.571 -0.4118  0.3598  0.0381
 3062TIP3    H126373   2.396   1.386   0.506 -0.5759 -0.0026 -0.0023
 3062TIP3    H226374   2.542   1.387   0.545 -0.5508  0.5923 -0.1022
 3063TIP3   OH226375   4.158   2.971   0.346 -0.4139 -0.3489 -0.0034
 3063TIP3    H126376   4.095   3.043   0.342 -1.3432 -1.1611 -0.2570
 3063TIP3    H226377   4.196   2.967   0.258 -0.9073 -0.6397 -0.2066
 3064TIP3   OH226378   5.929   6.161   6.637  0.0919  0.2367 -0.0482
 3064TIP3    H126379   5.899   6.130   6.723 -2.1716  2.2698 -0.0160
 3064TIP3    H226380   5.962   6.249   6.654  1.0055  0.1103 -1.0643
 3065TIP3   OH226381   1.982   0.265   6.076  0.1315  0.4774 -0.2545
 3065TIP3    H126382   1.998   0.200   6.144 -2.8544 -1.4496 -1.1944
 3065TIP3    H226383   1.916   0.323   6.113 -0.5540  0.1913 -0.9888
 3066TIP3   OH226384   5.285   0.652   0.277  0.3939  0.0161  0.1260
 3066TIP3    H126385   5.295   0.557   0.280 -1.0450 -0.2340 -1.6529
 3066TIP3    H226386   5.276   0.678   0.368 -1.5636 -1.8625  0.5521
 3067TIP3   OH226387   1.164   1.065   6.223 -0.3969 -0.1416  0.6884
 3067TIP3    H126388   1.175   0.974   6.251  0.8359 -0.6914 -1.3444
 3067TIP3    H226389   1.140   1.112   6.303 -0.2531 -2.1010  1.9570
 3068TIP3   OH226390   0.590   5.659   0.247  0.0415 -0.0149  0.3474
 3068TIP3    H126391   0.539   5.669   0.328  0.9110 -0.1313  0.9222
 3068TIP3    H226392   0.646   5.736   0.244  0.2657 -0.1885  0.0306
 3069TIP3   OH226393   1.613   6.165   6.615  0.0285  0.3419  0.3024
 3069TIP3    H126394   1.706   6.144   6.606 -0.4931 -1.8941 -0.4102
 3069TIP3    H226395   1.576   6.093   6.666 -1.7836 -0.2561 -1.7043
 3070TIP3   OH226396   4.388   4.454   0.144  0.4823 -0.4230  1.2355
 3070TIP3    H126397   4.345   4.412   0.070 -1.7229  2.4620  0.6916
 3070TIP3    H226398   4.475   4.477   0.112  0.5091 -1.5295  0.4579
 3071TIP3   OH226399   3.509   1.413   0.304  0.0220 -0.1811  0.1110
 3071TIP3    H126400   3.574   1.427   0.372  0.2298  0.8684 -0.2852
 3071TIP3    H226401   3.526   1.481   0.239 -0.5897 -0.7487 -0.6777
 3072TIP3   OH226402   0.994   2.614   5.492  0.6365 -0.1127 -0.2036
 3072TIP3    H126403   0.963   2.612   5.582  1.8531 -2.1302  0.2326
 3072TIP3    H226404   0.986   2.706   5.465 -0.4396  0.3802  1.6940
 3073TIP3   OH226405   2.662   2.194   0.084  0.0502 -0.1211 -0.2352
 3073TIP3    H126406   2.746   2.148   0.074  0.3412  0.7648 -2.4901
 3073TIP3    H226407   2.597   2.134   0.047 -0.0545 -0.1028 -0.0813
 3074TIP3   OH226408   5.561   0.108   0.469 -0.1425 -0.0873 -0.1045
 3074TIP3    H126409   5.537   0.079   0.380 -1.3066 -0.5682  0.3423
 3074TIP3    H226410   5.482   0.090   0.521  0.5909  0.0280  1.0601
 3075TIP3   OH226411   5.053   5.135   0.685  0.2493 -0.3041 -0.3049
 3075TIP3    H126412   5.118   5.082   0.641  1.4084  1.2232 -0.5210
 3075TIP3    H226413   5.088   5.148   0.773  1.0663  1.7847 -0.8794
 3076TIP3   OH226414   4.653   4.608   6.457  0.4088 -0.0743 -0.3958
 3076TIP3    H126415   4.682   4.634   6.369 -0.6439  1.7780 -0.2501
 3076TIP3    H226416   4.584   4.544   6.442 -0.8687  1.3817 -1.0362
 3077TIP3   OH226417   5.643   1.865   7.293  0.3257 -0.1018 -0.2659
 3077TIP3    H126418   5.602   1.922   7.228  0.2224 -0.4210 -0.4873
 3077TIP3    H226419   5.663   1.922   7.367  0.5580  0.2947 -0.6296
 3078TIP3   OH226420   2.773   5.380   1.991 -1.1804  0.3538  0.2039
 3078TIP3    H126421   2.788   5.366   2.085  0.0582 -2.7484 -0.3294
 3078TIP3    H226422   2.853   5.421   1.960 -1.1332  0.3561  0.3276
 3079TIP3   OH226423   5.887   0.532   6.168  0.0526  0.0594 -0.2823
 3079TIP3    H126424   5.903   0.585   6.246 -0.1891 -0.1669 -0.0800
 3079TIP3    H226425   5.875   0.443   6.201 -0.8120  0.0823 -0.5063
 3080TIP3   OH226426   3.867   3.426   6.227 -0.3965  0.5221  0.2460
 3080TIP3    H126427   3.942   3.441   6.169 -0.7568  0.3939 -0.2559
 3080TIP3    H226428   3.816   3.358   6.184 -0.8838  0.7131  0.5122
 3081TIP3   OH226429   5.733   2.359   6.805 -0.1070  0.2160 -0.0721
 3081TIP3    H126430   5.818   2.333   6.841 -0.4982  1.6879  2.1540
 3081TIP3    H226431   5.749   2.443   6.763 -0.4658  0.5757  0.4934
 3082TIP3   OH226432   1.279   3.916   0.889  0.3623 -0.7800  0.0458
 3082TIP3    H126433   1.210   3.940   0.828  1.2687  0.3579 -0.5714
 3082TIP3    H226434   1.325   3.998   0.907  0.3955 -1.1646  1.9275
 3083TIP3   OH226435   3.696   3.125   2.159 -0.2237  0.0507 -0.0460
 3083TIP3    H126436   3.732   3.102   2.073  0.5747  1.5901 -0.1417
 3083TIP3    H226437   3.664   3.214   2.149 -3.4604 -0.9246  0.2688
 3084TIP3   OH226438   1.982   0.759   7.437 -0.2072 -0.1395  0.3459
 3084TIP3    H126439   2.049   0.816   7.400  0.5284  0.0720  1.9338
 3084TIP3    H226440   1.911   0.761   7.373  1.0335  0.1317 -1.0653
 3085TIP3   OH226441   3.349   3.470   1.476  0.0865 -0.5093 -0.2348
 3085TIP3    H126442   3.287   3.541   1.459 -0.0273 -0.7836 -1.0140
 3085TIP3    H226443   3.381   3.445   1.389  1.5371 -0.1556  0.1790
 3086TIP3   OH226444   2.236   4.193   0.450  0.1064 -0.3056  0.7419
 3086TIP3    H126445   2.181   4.195   0.372 -0.4832 -1.3913  1.1150
 3086TIP3    H226446   2.273   4.281   0.455  2.3856 -0.9450 -2.3109
 3087TIP3   OH226447   5.745   3.351   0.085  0.0612 -0.2766  0.1931
 3087TIP3    H126448   5.651   3.336   0.071 -0.0405  0.5674 -0.0715
 3087TIP3    H226449   5.788   3.280   0.036 -0.3664  1.1034 -2.3630
 3088TIP3   OH226450   4.554   2.410   1.037 -0.6260  1.0218  0.4856
 3088TIP3    H126451   4.626   2.390   1.097  0.9750 -1.3279 -1.9518
 3088TIP3    H226452   4.488   2.344   1.056  0.2816 -0.3438 -0.7705
 3089TIP3   OH226453   5.947   3.441   1.012  0.4006 -0.0472  0.1353
 3089TIP3    H126454   5.861   3.414   0.980  0.0419  1.9935 -0.8115
 3089TIP3    H226455   5.928   3.506   1.080  1.0203  2.9994 -2.3501
 3090TIP3   OH226456   0.988   6.477   7.040  0.2461 -1.0807  0.1145
 3090TIP3    H126457   0.907   6.514   7.004  1.3480  0.7618 -0.6336
 3090TIP3    H226458   1.047   6.471   6.965  0.5677 -3.2438  0.4751
 3091TIP3   OH226459   3.607   6.230   6.450  0.1862  0.5439  0.5642
 3091TIP3    H126460   3.568   6.279   6.522  1.8002  3.2246 -0.2323
 3091TIP3    H226461   3.571   6.271   6.371  3.0527  1.9547 -0.1533
 3092TIP3   OH226462   5.760   3.037   6.515  0.3585 -0.0238  0.2750
 3092TIP3    H126463   5.802   3.063   6.433  0.7903 -1.0739  0.1453
 3092TIP3    H226464   5.823   3.060   6.583  1.2819 -1.7635  0.0667
 3093TIP3   OH226465   4.321   5.564   1.824  0.1430 -0.6040 -1.0829
 3093TIP3    H126466   4.274   5.607   1.752  0.1100 -0.3064 -0.8839
 3093TIP3    H226467   4.264   5.490   1.848 -0.6688  0.2554 -0.2658
 3094TIP3   OH226468   6.620   0.611   0.913 -0.0883  0.5985  0.4097
 3094TIP3    H126469   6.654   0.565   0.989 -0.0684 -0.3331 -0.1559
 3094TIP3    H226470   6.536   0.647   0.942  0.7349  1.8056  1.4077
 3095TIP3   OH226471   4.994   1.283   6.017 -0.1364  0.0917 -0.5443
 3095TIP3    H126472   5.067   1.307   5.961  0.9119  0.2317  0.8456
 3095TIP3    H226473   5.034   1.253   6.099 -1.6026 -0.6304 -0.0488
 3096TIP3   OH226474   3.009   3.508   7.126  0.1333 -0.0037 -0.9299
 3096TIP3    H126475   3.076   3.447   7.095  0.9815 -0.3327  1.3617
 3096TIP3    H226476   2.939   3.452   7.160  0.2169  0.3204 -0.2214
 3097TIP3   OH226477   1.278   4.888   7.087  0.3339  0.4840 -0.5219
 3097TIP3    H126478   1.229   4.858   7.164  1.7970  0.1826  0.3197
 3097TIP3    H226479   1.212   4.894   7.018 -1.0268  0.7924  0.7486
 3098TIP3   OH226480   1.510   3.357   0.072 -0.1544  0.4435 -0.0104
 3098TIP3    H126481   1.415   3.348   0.080 -0.3028  1.8816  0.1215
 3098TIP3    H226482   1.533   3.302  -0.003 -0.5886 -2.5779  1.8942
 3099TIP3   OH226483   2.671   0.288   0.719 -0.0851  0.2635 -0.2214
 3099TIP3    H126484   2.583   0.302   0.683 -2.3111 -3.6058  2.8896
 3099TIP3    H226485   2.711   0.224   0.660 -1.6146 -2.0443  1.1257
 3100TIP3   OH226486   1.792   0.437   6.224 -0.2741  0.1922  0.2144
 3100TIP3    H126487   1.881   0.450   6.257 -0.4927  1.4864  0.3488
 3100TIP3    H226488   1.742   0.410   6.301 -0.0008 -0.5440  0.1366
 3101TIP3   OH226489   3.037   2.214   0.806  0.1033  0.0485 -0.4757
 3101TIP3    H126490   2.949   2.239   0.835 -0.0936 -1.9198  0.8597
 3101TIP3    H226491   3.058   2.137   0.859  1.5770 -1.1147 -2.6174
 3102TIP3   OH226492   2.555   3.893   5.913  0.2026 -0.1457 -0.4408
 3102TIP3    H126493   2.465   3.904   5.883 -0.4797  1.8814  1.9680
 3102TIP3    H226494   2.595   3.979   5.900  0.9456 -0.2466  0.9600
 3103TIP3   OH226495   6.250   4.452   1.330  0.0831  0.5089 -0.0056
 3103TIP3    H126496   6.330   4.505   1.337 -0.6098  1.4798  0.8612
 3103TIP3    H226497   6.179   4.515   1.340 -0.7815 -0.6718  1.7199
 3104TIP3   OH226498   3.974   6.405   7.504  0.0482 -0.4522  0.2318
 3104TIP3    H126499   3.911   6.333   7.512  0.3089 -0.6163  0.9040
 3104TIP3    H226500   3.936   6.476   7.556 -0.4818  0.1078 -0.8864
 3105TIP3   OH226501   0.574   3.817   1.705  0.0950 -0.1296 -0.6201
 3105TIP3    H126502   0.669   3.820   1.700  0.0235  0.6316 -2.5024
 3105TIP3    H226503   0.549   3.905   1.733 -0.0468 -0.7745  1.4611
 3106TIP3   OH226504   2.796   6.294   7.183  0.3836 -0.2491  0.7339
 3106TIP3    H126505   2.773   6.309   7.274  1.3938 -2.3799  1.4060
 3106TIP3    H226506   2.840   6.209   7.183  2.1315  0.5535 -1.4523
 3107TIP3   OH226507   3.800   5.743   0.467  0.1127  0.0726 -0.0733
 3107TIP3    H126508   3.880   5.694   0.484  0.5109  1.3585  2.2166
 3107TIP3    H226509   3.729   5.685   0.496  0.4826  0.1887  1.1320
 3108TIP3   OH226510   4.685   2.282   1.249  0.1625  0.7350 -0.1953
 3108TIP3    H126511   4.732   2.364   1.264  0.2616  0.4805  1.0836
 3108TIP3    H226512   4.743   2.215   1.285 -0.5399  0.2603  0.0748
 3109TIP3   OH226513   1.777   6.225   5.547 -0.2101 -0.1038  0.3119
 3109TIP3    H126514   1.689   6.230   5.509  0.1640  1.1041 -0.4488
 3109TIP3    H226515   1.802   6.133   5.537 -1.3910 -0.4732  0.5648
 3110TIP3   OH226516   5.452   2.156   1.001  0.0947 -0.6185 -0.3414
 3110TIP3    H126517   5.461   2.249   0.979 -0.2735 -0.7517 -1.1061
 3110TIP3    H226518   5.365   2.132   0.969  0.5589 -1.4477 -1.0369
 3111TIP3   OH226519   3.759   4.634   0.783  0.5447 -0.0767  0.3944
 3111TIP3    H126520   3.762   4.556   0.838 -0.6363  0.8707  1.8924
 3111TIP3    H226521   3.831   4.689   0.813 -0.4085  0.6653  1.4071
 3112TIP3   OH226522   1.375   4.613   1.124  0.3044  0.3185 -0.3147
 3112TIP3    H126523   1.425   4.663   1.060  1.1841  0.9661  0.8507
 3112TIP3    H226524   1.317   4.677   1.165 -0.8376 -0.2444 -0.9784
 3113TIP3   OH226525   4.018   2.865   6.956 -0.7843 -0.0055 -0.2091
 3113TIP3    H126526   3.930   2.841   6.927 -0.1130 -0.7922 -1.7396
 3113TIP3    H226527   4.058   2.782   6.982 -0.3913  0.2952  0.1605
 3114TIP3   OH226528   1.819   2.105   2.372 -0.4310  0.1638  0.3430
 3114TIP3    H126529   1.878   2.062   2.434 -0.1824  0.7976  0.5630
 3114TIP3    H226530   1.811   2.194   2.406  0.1329  0.6799 -0.8124
 3115TIP3   OH226531   4.596   2.137   1.651  0.4524  0.0110 -0.1207
 3115TIP3    H126532   4.652   2.162   1.578 -1.7824  1.1454 -1.5269
 3115TIP3    H226533   4.625   2.193   1.723  0.5784  1.1859 -1.0591
 3116TIP3   OH226534   1.740   0.916   6.542 -0.0518 -0.0242  0.2328
 3116TIP3    H126535   1.748   0.823   6.521  0.3600 -0.2453  1.3200
 3116TIP3    H226536   1.828   0.943   6.567 -0.4122  0.3389  1.1463
 3117TIP3   OH226537   2.427   0.690   1.542  0.1856  0.3261  0.8001
 3117TIP3    H126538   2.404   0.636   1.617 -1.1866  0.3180  0.3867
 3117TIP3    H226539   2.379   0.772   1.555 -1.0617 -0.1283 -0.6596
 3118TIP3   OH226540   1.222   5.528   7.736  0.2448  0.6040  0.0510
 3118TIP3    H126541   1.313   5.557   7.740  0.1953  0.6700  1.2521
 3118TIP3    H226542   1.183   5.580   7.666  1.0870  0.7059 -0.3486
 3119TIP3   OH226543   5.371   3.878   7.217 -0.3968 -0.2251  0.0885
 3119TIP3    H126544   5.327   3.797   7.193 -0.1034 -0.4526  0.3124
 3119TIP3    H226545   5.450   3.880   7.163 -0.9830  0.4892 -0.7673
 3120TIP3   OH226546   3.243   1.614   5.636  0.4690 -0.1726  0.1453
 3120TIP3    H126547   3.307   1.671   5.679 -1.5879  2.5906 -0.2065
 3120TIP3    H226548   3.195   1.671   5.577 -1.2485 -2.4764 -0.8514
 3121TIP3   OH226549   3.359   0.960   6.450 -0.5066  0.0067  0.2826
 3121TIP3    H126550   3.322   0.956   6.362 -1.3138  2.0898  0.4779
 3121TIP3    H226551   3.346   0.873   6.486  1.2337 -1.3884 -2.1547
 3122TIP3   OH226552   1.869   2.532   7.107 -0.2011  0.3246 -0.4749
 3122TIP3    H126553   1.956   2.561   7.080  0.3235 -0.9493 -0.2060
 3122TIP3    H226554   1.830   2.609   7.148  0.9529  0.8018 -0.2307
 3123TIP3   OH226555   1.460   4.240   5.969 -0.3548 -0.6355 -0.1771
 3123TIP3    H126556   1.403   4.235   6.046  0.6200 -0.5296  0.5634
 3123TIP3    H226557   1.497   4.152   5.961  0.1538 -0.4319 -0.0567
 3124TIP3   OH226558   5.251   4.853   6.747  0.0272  0.5990  0.0237
 3124TIP3    H126559   5.331   4.825   6.704  0.0605  2.6851 -1.3992
 3124TIP3    H226560   5.251   4.807   6.831  2.0939 -0.3399 -0.4450
 3125TIP3   OH226561   3.581   0.293   7.521 -0.1163 -0.2567 -0.3622
 3125TIP3    H126562   3.591   0.241   7.441 -0.1802 -2.5663  1.0402
 3125TIP3    H226563   3.652   0.264   7.577 -0.6288  0.6202  0.7693
 3126TIP3   OH226564   2.261   3.379   5.927 -0.4400  0.5148  0.6687
 3126TIP3    H126565   2.187   3.320   5.943 -1.4435  1.2245 -1.0979
 3126TIP3    H226566   2.333   3.342   5.979 -1.9752 -0.2538  2.3726
 3127TIP3   OH226567   6.256   1.267   0.878  0.5036  0.1322  0.8840
 3127TIP3    H126568   6.223   1.305   0.797  0.0684 -0.8660  0.5761
 3127TIP3    H226569   6.204   1.308   0.947  0.0293  0.0818  0.5615
 3128TIP3   OH226570   2.052   5.288   5.600 -0.1487  0.2009 -0.0533
 3128TIP3    H126571   2.068   5.227   5.671 -0.2338 -1.7258 -1.5938
 3128TIP3    H226572   2.089   5.245   5.523 -0.7894  1.8142 -1.3188
 3129TIP3   OH226573   0.962   1.399   7.421 -0.2031 -0.6328  0.1868
 3129TIP3    H126574   1.054   1.405   7.444 -0.1738 -0.6434  0.0716
 3129TIP3    H226575   0.961   1.352   7.338 -0.4161 -2.0459  0.9578
 3130TIP3   OH226576   6.119   4.611   6.088  0.5296  0.8135 -0.4636
 3130TIP3    H126577   6.142   4.648   6.003 -0.6827 -1.0257 -1.6460
 3130TIP3    H226578   6.096   4.687   6.141  0.5939  1.9532 -2.0041
 3131TIP3   OH226579   6.006   0.657   1.041 -0.6196  0.2836  0.2705
 3131TIP3    H126580   6.020   0.706   1.122  0.3876  0.3873  0.0460
 3131TIP3    H226581   5.917   0.624   1.048 -0.6048  0.4443  1.3382
 3132TIP3   OH226582   2.761   1.253   0.389  0.1297  0.5436 -0.0417
 3132TIP3    H126583   2.837   1.215   0.435 -1.2207 -1.5506  0.6401
 3132TIP3    H226584   2.745   1.336   0.433  2.1819  1.1886 -0.4156
 3133TIP3   OH226585   4.582   3.598   0.982 -0.4001  0.0152 -0.4337
 3133TIP3    H126586   4.607   3.638   0.899  1.4000 -1.1159 -0.4964
 3133TIP3    H226587   4.630   3.515   0.984  0.6630  0.5915  2.3258
 3134TIP3   OH226588   1.917   2.880   5.910 -0.1014 -0.0256 -0.5984
 3134TIP3    H126589   1.889   2.857   5.998  1.7852 -0.4971 -0.0688
 3134TIP3    H226590   1.850   2.941   5.878 -0.1229  1.2839  1.6913
 3135TIP3   OH226591   3.057   2.338   0.093 -0.7611  0.2490 -0.3957
 3135TIP3    H126592   3.005   2.326   0.013 -2.0135  1.4900  0.1908
 3135TIP3    H226593   3.055   2.252   0.135 -1.8184  0.0977 -0.7149
 3136TIP3   OH226594   2.344   4.360   7.529 -0.5356  0.5480 -0.5010
 3136TIP3    H126595   2.363   4.386   7.439 -0.3660  0.6560 -0.4351
 3136TIP3    H226596   2.319   4.268   7.523  1.5229 -0.0630 -0.4125
 3137TIP3   OH226597   3.004   3.914   1.244 -0.3845 -0.3089 -0.6415
 3137TIP3    H126598   3.094   3.894   1.216  0.5157  1.5484  0.6432
 3137TIP3    H226599   2.951   3.902   1.166  1.0132 -1.2451 -1.4936
 3138TIP3   OH226600   3.995   6.418   0.567  0.3949 -0.1249 -0.4218
 3138TIP3    H126601   3.953   6.374   0.641  1.3440 -2.1582 -1.0400
 3138TIP3    H226602   4.089   6.413   0.585  0.5703  2.8276  0.0789
 3139TIP3   OH226603   3.607   1.546   6.805  0.2767  0.3258  0.6688
 3139TIP3    H126604   3.612   1.451   6.791  0.6511  0.3218  0.8146
 3139TIP3    H226605   3.692   1.569   6.844  0.4154  0.8119  0.0891
 3140TIP3   OH226606   3.669   3.758   6.304 -0.3328  0.7005  0.5010
 3140TIP3    H126607   3.578   3.730   6.312 -0.2739  0.4383  0.2776
 3140TIP3    H226608   3.672   3.813   6.226 -0.1020 -0.1579 -0.1169
 3141TIP3   OH226609   1.419   6.520   6.418 -0.0106 -0.1427 -0.2705
 3141TIP3    H126610   1.451   6.513   6.508 -0.2280  0.3120 -0.1562
 3141TIP3    H226611   1.488   6.567   6.372  0.6039 -1.3423 -0.6055
 3142TIP3   OH226612   6.261   2.783   7.646  0.4947  0.6840 -0.1459
 3142TIP3    H126613   6.225   2.742   7.724  1.2098  0.7575  0.2245
 3142TIP3    H226614   6.289   2.710   7.591  0.5459  0.6478 -0.0709
 3143TIP3   OH226615   4.695   4.876   0.644 -0.0098  0.2898 -0.6452
 3143TIP3    H126616   4.718   4.788   0.613  0.2331  0.3841 -0.7362
 3143TIP3    H226617   4.604   4.868   0.673  0.0499 -0.0237 -0.5339
 3144TIP3   OH226618   3.243   2.409   0.291  0.1424  0.3676 -0.2473
 3144TIP3    H126619   3.229   2.396   0.385  1.9583  3.9291  0.6759
 3144TIP3    H226620   3.322   2.359   0.271 -0.1254 -0.2213  0.1151
 3145TIP3   OH226621   6.169   1.963   0.417 -0.0295 -0.0655 -0.2488
 3145TIP3    H126622   6.224   2.041   0.426 -1.1609  1.0085 -1.9942
 3145TIP3    H226623   6.169   1.923   0.503  1.9760  0.9153  0.2514
 3146TIP3   OH226624   6.622   3.498   0.023  0.3186  0.0507  0.0566
 3146TIP3    H126625   6.659   3.460  -0.056  1.2459  0.2048  0.4062
 3146TIP3    H226626   6.532   3.466   0.025  0.0055  0.7254 -1.4999
 3147TIP3   OH226627   2.271   1.618   6.710 -0.5582  0.2526 -0.0742
 3147TIP3    H126628   2.291   1.614   6.804 -0.3530 -0.7018 -0.1521
 3147TIP3    H226629   2.317   1.543   6.673  0.5460  1.4313 -1.1624
 3148TIP3   OH226630   1.468   6.457   0.676 -0.3513 -0.1191  0.2705
 3148TIP3    H126631   1.516   6.445   0.595 -0.9449 -1.4864  0.1102
 3148TIP3    H226632   1.532   6.496   0.736  0.3369  0.0504 -0.5609
 3149TIP3   OH226633   3.178   2.681   0.236  0.0811 -0.0323 -0.3924
 3149TIP3    H126634   3.258   2.732   0.220  0.4891 -0.2249  0.9183
 3149TIP3    H226635   3.121   2.741   0.285 -0.1102 -0.2988 -0.2887
 3150TIP3   OH226636   0.065   6.422   7.313 -0.6909  0.1738 -0.4408
 3150TIP3    H126637  -0.025   6.443   7.290 -0.0147  0.8212 -2.7300
 3150TIP3    H226638   0.077   6.332   7.284 -0.1027  0.6991 -1.9569
 3151TIP3   OH226639   5.690   3.330   0.988  0.1618 -0.1065 -0.2364
 3151TIP3    H126640   5.644   3.398   0.939  2.3784  0.9849 -0.9088
 3151TIP3    H226641   5.734   3.278   0.921  1.4649  0.0618  0.4667
 3152TIP3   OH226642   4.923   0.563   7.516 -0.0893  0.2014  0.7050
 3152TIP3    H126643   4.852   0.501   7.499 -0.7260  1.2354 -0.6229
 3152TIP3    H226644   4.971   0.525   7.589 -1.8535 -0.6659  1.4840
 3153TIP3   OH226645   1.859   4.862   7.513  0.2525 -0.4401 -0.2427
 3153TIP3    H126646   1.833   4.954   7.511  0.9107 -0.2603 -1.1699
 3153TIP3    H226647   1.919   4.852   7.439  0.1790 -1.6217 -0.1668
 3154TIP3   OH226648   4.262   5.625   2.198  0.2462  0.1939  0.7607
 3154TIP3    H126649   4.213   5.707   2.210  0.7742  0.5260  0.6475
 3154TIP3    H226650   4.197   5.564   2.162 -0.0007  0.7401  0.2619
 3155TIP3   OH226651   1.653   2.618   1.408  0.0311 -0.6534 -0.1298
 3155TIP3    H126652   1.612   2.695   1.447  1.5235 -0.0052  0.2480
 3155TIP3    H226653   1.664   2.640   1.316 -0.6515 -0.9219 -0.2807
 3156TIP3   OH226654   1.928   2.964   2.032 -0.8585 -0.4855 -0.2035
 3156TIP3    H126655   1.887   2.989   2.115  0.3344 -1.6280  0.8009
 3156TIP3    H226656   2.015   3.005   2.036 -0.7293 -0.7020 -0.8013
 3157TIP3   OH226657   0.789   0.739   0.008 -0.4247  0.5121 -0.4566
 3157TIP3    H126658   0.801   0.778   0.094 -3.3665  1.7803 -0.5288
 3157TIP3    H226659   0.878   0.736  -0.029  0.6643  1.6355  1.8470
 3158TIP3   OH226660   1.883   5.265   0.477  0.3698 -0.3023 -0.1556
 3158TIP3    H126661   1.839   5.350   0.476  1.3417  0.3047  2.0885
 3158TIP3    H226662   1.962   5.277   0.424 -0.8984 -0.7161 -2.2459
 3159TIP3   OH226663   0.905   3.897   7.109  0.4204  0.0799  0.2749
 3159TIP3    H126664   0.847   3.969   7.082 -0.1564  0.3517  2.1202
 3159TIP3    H226665   0.853   3.818   7.094  1.5023 -0.1821 -2.9752
 3160TIP3   OH226666   6.510   2.573   7.344 -0.5095  0.0215 -0.2081
 3160TIP3    H126667   6.518   2.669   7.341  1.0298 -0.0703 -0.0427
 3160TIP3    H226668   6.505   2.547   7.252 -0.1368  0.2158 -0.2857
 3161TIP3   OH226669   2.808   1.588   6.416 -0.1033 -0.2047  0.3024
 3161TIP3    H126670   2.784   1.628   6.332  0.3709 -1.8700 -0.6837
 3161TIP3    H226671   2.826   1.497   6.394  2.8635 -0.0662  1.7144
 3162TIP3   OH226672   2.200   6.219   7.023 -0.4882  0.4770 -0.6495
 3162TIP3    H126673   2.294   6.233   7.033 -0.4631 -0.0557 -0.1198
 3162TIP3    H226674   2.163   6.307   7.013  0.2283  0.6198 -2.3679
 3163TIP3   OH226675   3.027   5.101   6.707 -0.0505  0.0496 -0.0974
 3163TIP3    H126676   3.090   5.034   6.735 -0.8826  0.1119  2.1693
 3163TIP3    H226677   3.072   5.184   6.723  0.0086  0.0632 -0.3393
 3164TIP3   OH226678   5.051   6.179   0.294 -0.2831 -0.5554  0.2708
 3164TIP3    H126679   4.986   6.109   0.282 -1.0098 -0.1756  1.6881
 3164TIP3    H226680   5.064   6.216   0.207 -0.0352 -2.3115 -0.4770
 3165TIP3   OH226681   6.611   2.119   1.758 -0.1893 -0.3757  0.3466
 3165TIP3    H126682   6.515   2.114   1.756 -0.1651 -0.7577 -1.1845
 3165TIP3    H226683   6.632   2.127   1.851 -1.6775 -0.9136  0.7678
 3166TIP3   OH226684   1.160   3.402   1.652  0.5630  0.0440  0.1857
 3166TIP3    H126685   1.173   3.331   1.715 -0.2832 -0.0577  0.2576
 3166TIP3    H226686   1.184   3.481   1.700 -1.2247  0.0985  1.0679
 3167TIP3   OH226687   0.337   3.091   0.353 -0.1882 -0.1748  0.3721
 3167TIP3    H126688   0.254   3.093   0.305 -0.0326  0.7776  0.1163
 3167TIP3    H226689   0.315   3.051   0.437 -1.0226  0.4790  0.4825
 3168TIP3   OH226690   1.295   0.238   0.571 -0.3054 -0.2157 -0.0303
 3168TIP3    H126691   1.387   0.217   0.590 -0.3746 -1.1441 -0.6728
 3168TIP3    H226692   1.299   0.325   0.531  0.1307  0.4324  1.3703
 3169TIP3   OH226693   0.318   0.218   1.635 -0.4568  0.2539  0.1516
 3169TIP3    H126694   0.268   0.295   1.607  1.4572  1.9812  1.2546
 3169TIP3    H226695   0.409   0.241   1.619  0.1295 -2.1330 -0.2210
 3170TIP3   OH226696   3.429   6.633   1.234  0.5630 -0.0036 -0.3977
 3170TIP3    H126697   3.480   6.707   1.266  1.4190  0.1577 -2.0695
 3170TIP3    H226698   3.356   6.626   1.297  2.5139 -0.1767  1.9969
 3171TIP3   OH226699   2.083   0.709   2.090 -0.2168 -0.2679 -0.0282
 3171TIP3    H126700   1.997   0.671   2.109 -0.5266  1.2046  1.7310
 3171TIP3    H226701   2.065   0.799   2.064  0.6981 -0.4712 -1.5104
 3172TIP3   OH226702   1.877   5.679   1.163  0.5686  0.2069 -0.1536
 3172TIP3    H126703   1.792   5.712   1.134 -0.0437 -0.8023  0.4368
 3172TIP3    H226704   1.884   5.705   1.255  0.5541 -0.3582  0.0139
 3173TIP3   OH226705   2.745   5.031   7.263  0.6709  0.1854 -0.4048
 3173TIP3    H126706   2.746   4.996   7.353  0.0842 -1.0172 -0.8399
 3173TIP3    H226707   2.666   5.085   7.259  1.4200  1.3690  0.1843
 3174TIP3   OH226708   0.434   3.716   1.487  0.2361 -0.0934  0.5429
 3174TIP3    H126709   0.497   3.737   1.556  1.5396  0.5848 -0.8090
 3174TIP3    H226710   0.462   3.632   1.453  0.6715  0.4047 -0.3437
 3175TIP3   OH226711   1.058   4.966   1.032 -0.4541  0.6551  0.1141
 3175TIP3    H126712   0.986   4.903   1.034 -0.1510  0.2844 -0.5317
 3175TIP3    H226713   1.065   4.992   0.941 -0.2663  1.2724  0.2994
 3176TIP3   OH226714   6.571   3.772   0.810 -0.1054  0.3973  0.4472
 3176TIP3    H126715   6.501   3.713   0.782 -0.0326  1.2388 -1.6458
 3176TIP3    H226716   6.638   3.764   0.743  2.0748 -0.6503  2.5696
 3177TIP3   OH226717   1.634   6.420   1.103 -0.0529  0.0533  0.0727
 3177TIP3    H126718   1.610   6.354   1.168  1.2549 -0.8373 -0.2948
 3177TIP3    H226719   1.551   6.445   1.062 -0.4939 -2.0667 -0.4298
 3178TIP3   OH226720   4.085   0.093   6.861  0.0199 -0.3785  0.2452
 3178TIP3    H126721   3.994   0.119   6.875 -0.0446  1.1447 -2.3482
 3178TIP3    H226722   4.091   0.006   6.901 -2.7204 -0.7604  0.0411
 3179TIP3   OH226723   0.429   1.990   2.422  0.3174 -0.5745  0.1313
 3179TIP3    H126724   0.503   1.950   2.376  1.5916 -0.2438  1.7740
 3179TIP3    H226725   0.462   2.004   2.511 -1.1137  1.3338  0.4171
 3180TIP3   OH226726   2.552   4.425   1.110 -0.3683  0.1472  0.5374
 3180TIP3    H126727   2.638   4.463   1.093 -0.3658 -0.0430  0.0895
 3180TIP3    H226728   2.492   4.499   1.109 -0.1614  0.3245  1.2176
 3181TIP3   OH226729   4.031   1.383   0.533  0.3780  0.0756  0.8089
 3181TIP3    H126730   4.125   1.385   0.549  0.1373  1.4307  2.2866
 3181TIP3    H226731   3.997   1.460   0.578 -1.3283  0.1763 -0.5377
 3182TIP3   OH226732   3.077   2.995   1.373  0.0514 -0.0904 -0.3900
 3182TIP3    H126733   3.027   3.076   1.368 -1.3142 -0.7647  1.2974
 3182TIP3    H226734   3.167   3.020   1.350  0.0523  2.2824  1.7822
 3183TIP3   OH226735   3.284   2.510   0.042  0.3181  0.0643  0.3460
 3183TIP3    H126736   3.301   2.465  -0.040  1.4512 -1.8856  1.5560
 3183TIP3    H226737   3.364   2.560   0.059  1.2617 -1.7317  1.5296
 3184TIP3   OH226738   4.075   1.615   6.039 -0.1673 -0.0379 -0.2229
 3184TIP3    H126739   4.168   1.593   6.032 -0.1109  0.2024 -0.2391
 3184TIP3    H226740   4.030   1.540   6.001 -0.0910 -1.2924  1.9559
 3185TIP3   OH226741   1.611   5.248   0.276  0.0243 -0.1073 -0.4561
 3185TIP3    H126742   1.551   5.284   0.342  1.8246  0.4207  0.9645
 3185TIP3    H226743   1.654   5.175   0.320  1.2033  0.1903 -1.0661
 3186TIP3   OH226744   3.291   2.259   5.707  0.2755 -0.0335 -0.7309
 3186TIP3    H126745   3.261   2.342   5.745  2.1490  1.2843 -1.9470
 3186TIP3    H226746   3.213   2.222   5.666 -0.9086  0.4112  0.9898
 3187TIP3   OH226747   1.844   6.092   1.192 -0.0452 -0.5862  0.0076
 3187TIP3    H126748   1.894   6.070   1.113 -0.1853  0.3773 -0.3702
 3187TIP3    H226749   1.871   6.182   1.212  0.4276 -1.0276  1.4120
 3188TIP3   OH226750   3.316   3.290   6.136 -0.0924 -0.2027 -0.0863
 3188TIP3    H126751   3.348   3.362   6.190  1.6976 -0.6076 -0.5360
 3188TIP3    H226752   3.257   3.331   6.073 -1.0745  0.4771  1.2384
 3189TIP3   OH226753   6.431   3.809   0.181 -0.5040  0.2606  0.2342
 3189TIP3    H126754   6.365   3.771   0.122  0.9965  0.3355 -1.5716
 3189TIP3    H226755   6.409   3.902   0.185 -1.6862 -0.0276  1.3125
 3190TIP3   OH226756   3.191   0.609   7.079 -0.1143 -0.0496  0.2178
 3190TIP3    H126757   3.183   0.613   7.174  0.8167 -0.8340  0.3439
 3190TIP3    H226758   3.132   0.539   7.053 -0.5584  0.3337  0.1900
 3191TIP3   OH226759   4.482   5.365   6.991  0.1949 -0.6256  0.6809
 3191TIP3    H126760   4.502   5.273   6.978 -0.5846 -0.6165 -0.8457
 3191TIP3    H226761   4.389   5.373   6.969  0.5293  0.7194 -0.4112
 3192TIP3   OH226762   0.506   3.315   0.417  0.1275  0.1428  0.8081
 3192TIP3    H126763   0.451   3.391   0.437 -0.5329  0.2045 -1.0368
 3192TIP3    H226764   0.446   3.251   0.380  0.8648 -0.8703  1.3128
 3193TIP3   OH226765   0.859   5.816   6.078 -0.0183 -0.3023 -0.3288
 3193TIP3    H126766   0.850   5.736   6.025  0.6041 -1.1186  0.7612
 3193TIP3    H226767   0.854   5.785   6.169 -1.7490  1.1402  0.1402
 3194TIP3   OH226768   5.472   2.026   7.628 -0.4529  0.2587 -0.2724
 3194TIP3    H126769   5.513   1.992   7.708 -0.4737  0.3099 -0.2401
 3194TIP3    H226770   5.381   1.999   7.634 -0.1941 -0.8332 -0.8759
 3195TIP3   OH226771   2.777   5.183   2.209 -0.2419 -0.3090  0.1903
 3195TIP3    H126772   2.734   5.107   2.171  1.9360 -0.9935 -1.0880
 3195TIP3    H226773   2.809   5.152   2.294 -0.1394 -0.5652  0.0615
 3196TIP3   OH226774   5.086   3.464   6.514 -0.0266  0.7485 -0.2236
 3196TIP3    H126775   5.048   3.467   6.601  2.3546  2.0839  0.8551
 3196TIP3    H226776   5.045   3.388   6.472 -0.4918 -0.5288  2.3886
 3197TIP3   OH226777   5.156   3.458   0.189 -0.3055  0.1953 -0.4538
 3197TIP3    H126778   5.182   3.368   0.168 -0.5295 -0.9062  3.1938
 3197TIP3    H226779   5.071   3.448   0.234  0.8002  1.8524  2.2329
 3198TIP3   OH226780   4.089   0.254   6.157  0.4581  0.1882 -0.3964
 3198TIP3    H126781   4.102   0.161   6.173  2.3325  0.2880 -1.1104
 3198TIP3    H226782   4.172   0.284   6.120  0.5098  2.5062  1.3698
 3199TIP3   OH226783   2.988   2.508   0.300  0.1788  0.7607  0.1094
 3199TIP3    H126784   2.968   2.440   0.363 -0.1803  0.2457 -0.5461
 3199TIP3    H226785   2.910   2.565   0.299 -0.3183  0.0912 -0.7241
 3200TIP3   OH226786   4.012   5.033   6.983 -0.6888 -0.2027  0.0680
 3200TIP3    H126787   3.958   4.988   6.918 -1.4643 -0.3866  0.8290
 3200TIP3    H226788   4.095   5.048   6.938 -0.9749 -0.9390 -0.7368
 3201TIP3   OH226789   1.791   1.222   2.662  0.1002  0.2342 -0.0274
 3201TIP3    H126790   1.843   1.217   2.742  0.6747  0.1672 -0.3990
 3201TIP3    H226791   1.750   1.309   2.665 -0.4870 -0.0673  0.7036
 3202TIP3   OH226792   1.015   6.206   0.684 -0.0954 -0.7971 -0.3088
 3202TIP3    H126793   1.012   6.115   0.655  0.9617 -0.8404 -0.3377
 3202TIP3    H226794   0.980   6.256   0.611  1.3111 -1.0155 -1.1598
 3203TIP3   OH226795   6.040   6.586   7.645 -0.4502  0.1026  0.6106
 3203TIP3    H126796   6.055   6.630   7.562 -0.0857  2.3125  1.7546
 3203TIP3    H226797   5.947   6.565   7.645 -0.1319 -1.5283 -1.0253
 3204TIP3   OH226798   5.233   1.479   1.127  0.4817  0.3037 -0.2170
 3204TIP3    H126799   5.167   1.438   1.183 -1.6154  2.3724 -0.9883
 3204TIP3    H226800   5.198   1.469   1.038  0.2989  2.8666 -0.5011
 3205TIP3   OH226801   5.827   2.013   6.013 -0.3120 -0.3695 -0.6096
 3205TIP3    H126802   5.921   1.994   6.015 -0.2135  0.1116  1.4850
 3205TIP3    H226803   5.787   1.941   6.062 -1.2339 -1.3077 -2.6404
 3206TIP3   OH226804   4.087   0.252   6.612  0.0570 -0.3043  0.2336
 3206TIP3    H126805   4.070   0.173   6.560  2.9468 -0.8004 -0.1255
 3206TIP3    H226806   4.092   0.221   6.702 -1.3055 -0.0519  0.4218
 3207TIP3   OH226807   0.323   5.850   0.130  0.0708  0.5327 -0.1663
 3207TIP3    H126808   0.382   5.914   0.169  0.5953 -0.4266  0.6508
 3207TIP3    H226809   0.369   5.821   0.051  0.7632 -0.2724  0.5109
 3208TIP3   OH226810   6.194   5.647   1.485 -0.0419  0.4684  0.8010
 3208TIP3    H126811   6.227   5.736   1.477 -0.5616  0.5713 -0.3761
 3208TIP3    H226812   6.242   5.598   1.417 -1.6125  0.4352 -0.3450
 3209TIP3   OH226813   5.758   2.311   0.018 -0.1674  0.1005 -0.0911
 3209TIP3    H126814   5.726   2.222   0.036 -1.2604  0.5832  0.4235
 3209TIP3    H226815   5.762   2.353   0.104 -1.3837  1.1016 -0.4923
 3210TIP3   OH226816   1.090   3.787   1.879 -0.0636  0.4111  0.1995
 3210TIP3    H126817   1.079   3.693   1.861 -1.4655  0.7597 -1.0211
 3210TIP3    H226818   1.080   3.795   1.973 -2.3029 -0.4361  0.1013
 3211TIP3   OH226819   5.986   3.654   7.363 -0.1375  0.5994 -0.1866
 3211TIP3    H126820   5.902   3.610   7.378 -2.0579  3.3466 -1.9711
 3211TIP3    H226821   5.973   3.704   7.283  3.4585  0.7411 -0.8629
 3212TIP3   OH226822   0.615   5.954   6.326  0.1784  0.5867  0.2004
 3212TIP3    H126823   0.640   5.992   6.242  0.4617 -1.4492 -0.6935
 3212TIP3    H226824   0.650   5.865   6.324 -1.9370 -0.3685  1.4310
 3213TIP3   OH226825   3.939   3.088   0.264  0.4504  0.5786  0.5298
 3213TIP3    H126826   3.932   3.174   0.224  1.5872  0.8647  0.9108
 3213TIP3    H226827   3.862   3.080   0.319 -0.7210  0.5046 -1.0636
 3214TIP3   OH226828   3.633   4.942   6.478 -0.1695  0.6761  0.2255
 3214TIP3    H126829   3.544   4.907   6.479  0.8601 -2.2373  1.4561
 3214TIP3    H226830   3.668   4.913   6.394  0.5716 -1.1053  1.0956
 3215TIP3   OH226831   1.843   0.875   6.098 -0.1915 -0.5026 -0.0919
 3215TIP3    H126832   1.785   0.919   6.160 -2.3758 -0.2981 -2.1548
 3215TIP3    H226833   1.786   0.816   6.049  1.5530 -1.0620 -1.5668
 3216TIP3   OH226834   2.617   0.017   0.998  0.3759  0.5556  0.3383
 3216TIP3    H126835   2.619   0.033   0.904 -0.3140  0.7073  0.3438
 3216TIP3    H226836   2.536  -0.032   1.012  0.6073  0.3044  0.8205
 3217TIP3   OH226837   2.484   3.056   1.302 -0.4274 -0.3501 -0.2326
 3217TIP3    H126838   2.572   3.025   1.324  0.0619  2.1766  1.8855
 3217TIP3    H226839   2.426   2.985   1.330  0.8053 -1.0755  0.6003
 3218TIP3   OH226840   2.028   1.135   0.437 -0.2021  0.3104 -0.2867
 3218TIP3    H126841   1.991   1.100   0.356  1.8021  0.8791 -1.5115
 3218TIP3    H226842   2.058   1.058   0.485 -3.1224 -0.2097  0.9292
 3219TIP3   OH226843   5.612   1.185   0.969 -0.2356  0.0924  0.4972
 3219TIP3    H126844   5.582   1.275   0.960 -1.7686 -0.4233  0.0992
 3219TIP3    H226845   5.564   1.151   1.045  0.4591 -0.3454  0.7533
 3220TIP3   OH226846   3.324   2.962   6.935 -0.1201 -0.3157 -0.1557
 3220TIP3    H126847   3.398   2.904   6.914  1.1003  0.4845  1.6725
 3220TIP3    H226848   3.255   2.904   6.964  0.7386 -0.9563  0.6764
 3221TIP3   OH226849   5.950   0.535   5.781  0.6504  0.1154 -0.2735
 3221TIP3    H126850   5.924   0.598   5.714  2.3438 -0.3276 -1.4061
 3221TIP3    H226851   6.010   0.583   5.837  0.2507  0.1065  0.1736
 3222TIP3   OH226852   2.692   1.005   0.630  0.1385 -0.0701 -0.7565
 3222TIP3    H126853   2.653   0.990   0.544  0.8917  2.9391 -1.7244
 3222TIP3    H226854   2.639   1.075   0.668  1.1373  0.1175  0.3245
 3223TIP3   OH226855   4.097   1.128   7.307 -0.4641  0.1903 -0.6021
 3223TIP3    H126856   4.059   1.138   7.394 -0.0348  0.7333 -0.4745
 3223TIP3    H226857   4.056   1.048   7.272  0.5164 -0.9373  0.7063
 3224TIP3   OH226858   5.703   3.836   1.756 -0.2038  0.0526 -0.7427
 3224TIP3    H126859   5.722   3.746   1.782  0.0378  0.1146 -0.7058
 3224TIP3    H226860   5.610   3.848   1.775 -0.2352 -0.1888 -0.7462
 3225TIP3   OH226861   2.171   5.600   6.893  0.8474 -0.0173  0.0512
 3225TIP3    H126862   2.263   5.572   6.889  0.4031 -1.3867 -2.6321
 3225TIP3    H226863   2.150   5.625   6.804 -1.5523 -0.2027  0.5125
 3226TIP3   OH226864   6.317   2.563   7.530  0.0929  0.2891 -0.0849
 3226TIP3    H126865   6.320   2.478   7.574  0.5709 -0.1810 -1.0083
 3226TIP3    H226866   6.373   2.553   7.453 -2.0357  0.5273 -1.7773
 3227TIP3   OH226867   2.346   1.016   7.256  0.1951  0.3818  0.3807
 3227TIP3    H126868   2.291   1.092   7.271  0.1450  0.2784  0.7462
 3227TIP3    H226869   2.287   0.941   7.266  0.8086  0.1471  3.1199
 3228TIP3   OH226870   1.790   4.369   0.405 -0.2397 -0.2281 -0.6718
 3228TIP3    H126871   1.880   4.399   0.390  0.0827 -0.6767  0.2762
 3228TIP3    H226872   1.783   4.288   0.355 -0.1761 -0.1014 -0.8869
 3229TIP3   OH226873   2.320   4.351   0.065 -0.7468 -0.1623  0.0444
 3229TIP3    H126874   2.370   4.297   0.003 -0.4509  0.5802 -0.3811
 3229TIP3    H226875   2.233   4.358   0.025 -0.7996 -0.3593  0.1233
 3230TIP3   OH226876   3.599   0.915   1.032  0.1398 -0.8590 -0.4464
 3230TIP3    H126877   3.530   0.864   1.074 -1.6494 -0.4127 -2.6540
 3230TIP3    H226878   3.553   0.976   0.975  2.3369  0.6906 -0.6919
 3231TIP3   OH226879   6.248   0.536   6.066 -0.2156 -0.6244 -0.2682
 3231TIP3    H126880   6.179   0.479   6.099  0.5269 -1.7164 -0.5336
 3231TIP3    H226881   6.210   0.578   5.988 -0.5751 -1.2253 -0.4199
 3232TIP3   OH226882   1.128   4.096   2.689  0.2352  0.2419 -0.4253
 3232TIP3    H126883   1.068   4.134   2.625  0.9846  1.9808 -0.1434
 3232TIP3    H226884   1.201   4.063   2.636  0.6300  1.2454 -0.5253
 3233TIP3   OH226885   0.871   3.012   1.437  0.2295  0.1410 -0.2484
 3233TIP3    H126886   0.958   3.042   1.410  0.3420  1.0837  1.0959
 3233TIP3    H226887   0.811   3.054   1.375  0.2734  4.2781  2.1950
 3234TIP3   OH226888   3.024   2.597   0.025 -0.0247 -0.1883  0.2280
 3234TIP3    H126889   3.034   2.658  -0.048  1.4153  0.0311  0.5728
 3234TIP3    H226890   2.930   2.577   0.028 -0.0362 -0.7416 -2.0944
 3235TIP3   OH226891   3.776   1.186   6.150 -0.4022  0.4051 -0.0613
 3235TIP3    H126892   3.783   1.092   6.135 -0.3907  0.1845  1.2179
 3235TIP3    H226893   3.710   1.195   6.218 -0.9737  1.3872 -0.7283
 3236TIP3   OH226894   6.340   4.821   6.245  0.4263  0.1796  0.0731
 3236TIP3    H126895   6.390   4.896   6.278  0.0393  0.0041  1.1021
 3236TIP3    H226896   6.252   4.833   6.282  0.7318 -1.5393  1.4819
 3237TIP3   OH226897   2.200   3.871   7.622 -0.2604 -0.8610 -0.3320
 3237TIP3    H126898   2.117   3.835   7.653 -1.6010 -0.8983 -3.5207
 3237TIP3    H226899   2.242   3.799   7.576  0.6019 -0.2940 -0.4599
 3238TIP3   OH226900   4.105   4.250   0.295 -0.7148  0.2605 -0.8192
 3238TIP3    H126901   4.179   4.247   0.356 -0.5585 -1.9358 -1.0580
 3238TIP3    H226902   4.082   4.343   0.291  0.2354  0.6729  1.4029
 3239TIP3   OH226903   3.515   5.260   0.131  0.6888 -0.6278 -0.9486
 3239TIP3    H126904   3.602   5.299   0.117  0.7062 -0.2106  0.2373
 3239TIP3    H226905   3.459   5.335   0.152 -0.6889 -0.4409 -4.4960
 3240TIP3   OH226906   5.439   0.512   1.228 -0.2793  0.1215  0.1181
 3240TIP3    H126907   5.455   0.523   1.321 -1.9236 -0.5739  0.5288
 3240TIP3    H226908   5.519   0.472   1.194  0.4671  0.6973  1.1451
 3241TIP3   OH226909   1.918   4.746   0.343  0.6130  0.0637  0.4352
 3241TIP3    H126910   1.986   4.807   0.314  0.1424 -0.1037 -1.1146
 3241TIP3    H226911   1.853   4.747   0.273 -0.1434 -1.0698  1.0870
 3242TIP3   OH226912   1.251   6.282   7.180 -0.3162  0.3323  0.1440
 3242TIP3    H126913   1.309   6.219   7.224 -1.5776 -0.8185  0.2450
 3242TIP3    H226914   1.247   6.251   7.090  0.2572  1.1966 -0.1874
 3243TIP3   OH226915   4.292   2.046   6.169  0.6944  0.2697 -0.1653
 3243TIP3    H126916   4.305   1.978   6.103  1.7213 -0.5870  0.8735
 3243TIP3    H226917   4.216   2.095   6.139 -0.4981 -1.7561 -0.6078
 3244TIP3   OH226918   0.966   5.864   6.711  1.0629 -0.0493 -0.0759
 3244TIP3    H126919   0.937   5.955   6.701  2.4376  0.3291 -1.0166
 3244TIP3    H226920   0.977   5.833   6.621  2.0611 -0.6441  0.2365
 3245TIP3   OH226921   0.525   2.024   1.676  0.2652  0.7098 -0.1297
 3245TIP3    H126922   0.599   2.009   1.734  0.4761 -0.0874 -0.5843
 3245TIP3    H226923   0.541   2.111   1.640  0.4546  0.9532  0.5287
 3246TIP3   OH226924   1.938   4.725   1.970  0.7916  0.1004  0.7978
 3246TIP3    H126925   2.000   4.765   2.032 -0.6417  2.1320  1.0198
 3246TIP3    H226926   1.982   4.731   1.885  1.9807 -0.9732  1.2946
 3247TIP3   OH226927   2.096   4.766   6.365 -0.0133  0.2012  0.3133
 3247TIP3    H126928   2.041   4.835   6.403 -1.7870 -0.6006 -0.6481
 3247TIP3    H226929   2.163   4.812   6.315 -1.4307  1.2555 -0.6854
 3248TIP3   OH226930   2.832   5.480   0.507  0.2200 -0.1982  0.6776
 3248TIP3    H126931   2.876   5.396   0.496  0.5813  0.3093 -2.5300
 3248TIP3    H226932   2.740   5.461   0.489  0.6193  0.4024 -2.4048
 3249TIP3   OH226933   1.268   4.506   0.152 -0.3688  0.2650  0.0842
 3249TIP3    H126934   1.234   4.456   0.078  1.0080 -1.1961  0.3813
 3249TIP3    H226935   1.356   4.531   0.125  1.1640 -2.4308  2.0399
 3250TIP3   OH226936   6.314   2.114   0.818 -0.1790 -0.5853  0.1584
 3250TIP3    H126937   6.287   2.082   0.732 -1.2109  1.1888 -0.2445
 3250TIP3    H226938   6.294   2.208   0.816 -0.7552 -0.5803  2.5236
 3251TIP3   OH226939   5.055   1.869   2.570  0.3200 -0.2170  0.5090
 3251TIP3    H126940   5.130   1.921   2.541  0.4929 -0.9287 -0.3658
 3251TIP3    H226941   4.985   1.891   2.508  0.7076 -1.7921 -0.5441
 3252TIP3   OH226942   3.789   4.469   6.590 -0.2063  0.1618  0.1899
 3252TIP3    H126943   3.809   4.423   6.672  0.4639 -0.1125 -0.1180
 3252TIP3    H226944   3.829   4.555   6.600  1.0433 -0.3209 -0.3495
 3253TIP3   OH226945   4.900   5.448   6.512  0.3549 -0.0045  0.0829
 3253TIP3    H126946   4.893   5.461   6.417  2.5056 -2.2002 -0.4711
 3253TIP3    H226947   4.982   5.492   6.536 -0.2450  0.6519  0.9776
 3254TIP3   OH226948   2.206   0.179   0.744  0.6653 -0.2031 -0.0437
 3254TIP3    H126949   2.142   0.222   0.688 -0.5514  0.1076  1.4948
 3254TIP3    H226950   2.189   0.214   0.831  2.6382 -0.4929  0.5057
 3255TIP3   OH226951   4.569   0.859   6.633 -0.3648 -0.0847  0.1222
 3255TIP3    H126952   4.482   0.877   6.669  0.4379 -0.0854  2.1847
 3255TIP3    H226953   4.613   0.809   6.701  0.2598 -2.8276 -2.1376
 3256TIP3   OH226954   6.506   4.706   5.980  0.4716  0.0123  0.0333
 3256TIP3    H126955   6.413   4.707   5.957  0.9091  0.3109 -1.9675
 3256TIP3    H226956   6.547   4.652   5.912  1.4496 -2.5968  2.4936
 3257TIP3   OH226957   5.679   0.512   7.206  0.3673  0.0888  0.1947
 3257TIP3    H126958   5.740   0.483   7.274  0.4373 -0.2841 -0.0194
 3257TIP3    H226959   5.731   0.511   7.126 -0.0546 -0.7930 -0.0880
 3258TIP3   OH226960   0.791   1.464   2.308  0.0021  0.2998  0.4772
 3258TIP3    H126961   0.861   1.434   2.367 -0.0006  0.9031  0.7976
 3258TIP3    H226962   0.736   1.520   2.363  0.4332  1.4985 -0.2726
 3259TIP3   OH226963   0.721   4.882   1.735  0.0156  0.1163 -0.3497
 3259TIP3    H126964   0.729   4.920   1.648 -1.2637  0.3265 -0.3953
 3259TIP3    H226965   0.793   4.820   1.741  1.1055  1.2629 -0.9359
 3260TIP3   OH226966   5.383   2.776   6.884  0.6432 -0.0560  0.1250
 3260TIP3    H126967   5.430   2.750   6.964  0.9023 -0.0976 -0.0391
 3260TIP3    H226968   5.293   2.748   6.899  0.7788 -0.4405  0.2293
 3261TIP3   OH226969   2.024   3.333   5.681 -0.2619  0.0526 -0.0172
 3261TIP3    H126970   1.938   3.334   5.639 -0.4157  4.1912 -0.0131
 3261TIP3    H226971   2.085   3.354   5.610  0.4571 -0.4357  0.4422
 3262TIP3   OH226972   6.364   4.344   0.071  0.3504  0.3240 -0.0021
 3262TIP3    H126973   6.370   4.347  -0.025 -1.1003  0.3108 -0.1083
 3262TIP3    H226974   6.274   4.369   0.090  0.8660  1.2026  1.4129
 3263TIP3   OH226975   2.647   0.942   0.955 -0.4498  0.3346 -0.3956
 3263TIP3    H126976   2.645   0.990   0.872  0.4591  0.1622 -0.5248
 3263TIP3    H226977   2.706   0.869   0.939 -0.5967  0.0580  0.2857
 3264TIP3   OH226978   5.783   3.220   0.769 -0.2509 -0.1556 -0.0586
 3264TIP3    H126979   5.825   3.266   0.697  0.8266  1.1887  1.3569
 3264TIP3    H226980   5.694   3.204   0.738 -0.2338  1.6122 -1.1743
 3265TIP3   OH226981   1.765   1.192   1.757  0.4614 -0.3523 -0.3264
 3265TIP3    H126982   1.711   1.115   1.771  1.2823 -1.0447 -0.9011
 3265TIP3    H226983   1.785   1.223   1.846 -1.7297  0.5726 -0.0908
 3266TIP3   OH226984   3.914   1.131   0.635 -0.5652 -0.0779  0.2471
 3266TIP3    H126985   3.970   1.162   0.706 -2.1615  0.2530  1.3960
 3266TIP3    H226986   3.911   1.205   0.574  0.3129 -0.1415  0.1071
 3267TIP3   OH226987   0.023   2.931   1.496 -0.0808 -0.0666 -0.2887
 3267TIP3    H126988  -0.029   2.870   1.549  1.6567 -2.0365 -0.7358
 3267TIP3    H226989   0.000   2.909   1.406 -0.3713  0.8404 -0.4459
 3268TIP3   OH226990   4.451   3.942   0.540  0.4070  0.0854 -0.6060
 3268TIP3    H126991   4.547   3.937   0.548  0.6570  1.9084 -1.7816
 3268TIP3    H226992   4.431   4.034   0.554 -1.2674 -0.3768  0.2149
 3269TIP3   OH226993   1.877   4.633   6.560  0.4514  0.4909  0.4834
 3269TIP3    H126994   1.905   4.698   6.495 -0.3595  0.6560  0.2825
 3269TIP3    H226995   1.893   4.676   6.644 -1.1046  1.4266  0.3426
 3270TIP3   OH226996   1.658   2.268   0.426  0.1087  0.0402  0.3442
 3270TIP3    H126997   1.621   2.339   0.478 -0.2727 -0.7288  1.1599
 3270TIP3    H226998   1.749   2.262   0.455 -0.1834 -0.5901  1.1947
 3271TIP3   OH226999   5.139   1.251   5.567 -0.6523 -0.6148 -0.5250
 3271TIP3    H127000   5.136   1.188   5.495 -0.3998 -1.7837  0.4595
 3271TIP3    H227001   5.227   1.241   5.604 -0.0590  1.3958 -1.2592
 3272TIP3   OH227002   3.313   5.531   2.156  0.6382 -0.1339  0.0024
 3272TIP3    H127003   3.380   5.488   2.102  1.8943  1.7531 -0.0255
 3272TIP3    H227004   3.279   5.601   2.100 -0.4864 -0.2891  0.4713
 3273TIP3   OH227005   5.971   0.807   0.516 -0.3619  1.1631 -0.1426
 3273TIP3    H127006   5.921   0.759   0.583  0.7146  1.4099  0.8752
 3273TIP3    H227007   6.002   0.739   0.456 -1.1895  0.9153 -0.2946
 3274TIP3   OH227008   4.046   4.294   1.634 -1.0919 -0.5855  0.0281
 3274TIP3    H127009   4.106   4.361   1.666 -0.8450  0.5591 -2.6276
 3274TIP3    H227010   3.961   4.318   1.672 -0.9240  0.9937 -0.5398
 3275TIP3   OH227011   4.975   5.777   7.668  0.6880 -0.0833 -0.0714
 3275TIP3    H127012   5.021   5.695   7.688  1.8765  0.7756  0.8631
 3275TIP3    H227013   4.989   5.790   7.574  0.2946 -1.0465 -0.2796
 3276TIP3   OH227014   3.382   4.975   7.263 -0.1711 -0.0388  0.0712
 3276TIP3    H127015   3.411   4.949   7.175 -0.9750 -0.1487 -0.1721
 3276TIP3    H227016   3.380   5.070   7.260  1.9519  0.0691  0.6922
 3277TIP3   OH227017   5.101   6.234   0.021  0.1371  0.5470 -0.3523
 3277TIP3    H127018   5.146   6.227  -0.063 -0.0335  1.0960 -0.4948
 3277TIP3    H227019   5.008   6.232  -0.001 -0.0373 -3.0221  0.1171
 3278TIP3   OH227020   4.641   4.216   0.324 -0.5374  0.3145 -0.6485
 3278TIP3    H127021   4.686   4.136   0.353  1.6957  1.7041 -0.0672
 3278TIP3    H227022   4.554   4.209   0.362 -0.5706 -2.0665 -1.0190
 3279TIP3   OH227023   4.140   5.344   5.920 -0.6206 -0.1530  0.3849
 3279TIP3    H127024   4.204   5.399   5.966 -1.4699  0.0097  1.4254
 3279TIP3    H227025   4.184   5.318   5.839  0.2760  1.0068  0.4710
 3280TIP3   OH227026   0.644   2.742   6.469  0.3952  0.4282  0.0696
 3280TIP3    H127027   0.692   2.693   6.402 -0.4986  2.2428 -2.0057
 3280TIP3    H227028   0.707   2.805   6.503  0.6984 -0.1385  0.5745
 3281TIP3   OH227029   0.661   1.918   0.004  0.3298 -0.5278  0.0083
 3281TIP3    H127030   0.711   1.979   0.059  0.3903 -1.2610  0.7911
 3281TIP3    H227031   0.702   1.833   0.019 -0.3864 -0.9339 -0.2856
 3282TIP3   OH227032   0.021   2.328   7.121  0.0719 -0.4951  0.2057
 3282TIP3    H127033   0.054   2.285   7.042  2.0791  0.6441  0.3594
 3282TIP3    H227034  -0.041   2.393   7.090  0.6473 -0.2398 -0.4221
 3283TIP3   OH227035   1.459   1.245   1.936 -0.5638  0.4063  0.6594
 3283TIP3    H127036   1.465   1.226   2.029 -1.4765  0.2637  0.6968
 3283TIP3    H227037   1.488   1.336   1.928 -0.2033  0.3235  1.0434
 3284TIP3   OH227038   6.480   6.219   1.711  0.1317 -0.0695 -1.3825
 3284TIP3    H127039   6.500   6.160   1.639  1.0400  0.4094 -1.5375
 3284TIP3    H227040   6.553   6.208   1.772  1.4283  2.3264 -2.3529
 3285TIP3   OH227041   5.328   6.023   1.658 -0.1256 -0.0701  0.1984
 3285TIP3    H127042   5.293   5.960   1.721  0.0092 -0.6864 -0.3339
 3285TIP3    H227043   5.252   6.050   1.606 -0.2961  0.6840  0.8218
 3286TIP3   OH227044   0.467   5.982   1.580 -0.2818  0.2856 -0.0249
 3286TIP3    H127045   0.558   5.966   1.604 -0.0467  0.0627 -1.0428
 3286TIP3    H227046   0.470   6.005   1.487 -1.2764  0.0908 -0.1140
 3287TIP3   OH227047   3.815   6.033   0.014  0.2713 -0.1000 -0.6086
 3287TIP3    H127048   3.911   6.026   0.008  0.7090  2.0131  1.8241
 3287TIP3    H227049   3.790   5.961   0.072  0.6031  0.1121 -0.1864
 3288TIP3   OH227050   5.342   2.118   0.226 -0.1655  0.3532 -0.5607
 3288TIP3    H127051   5.403   2.182   0.265 -0.6334  1.1356 -1.0784
 3288TIP3    H227052   5.397   2.042   0.206  0.1681  0.0708  1.2308
 3289TIP3   OH227053   3.097   3.663   5.952 -0.1208 -0.3082 -0.2764
 3289TIP3    H127054   3.101   3.758   5.965  0.9688 -0.4299  0.3438
 3289TIP3    H227055   3.060   3.653   5.865 -1.1519  0.6664  0.0200
 3290TIP3   OH227056   6.243   4.901   0.347  0.7144 -0.0256 -0.0345
 3290TIP3    H127057   6.188   4.953   0.289 -0.9806  0.2103  1.6972
 3290TIP3    H227058   6.228   4.810   0.319  1.3376  0.1733 -1.0916
 3291TIP3   OH227059   4.751   1.655   7.430  0.3860 -0.5027 -0.4842
 3291TIP3    H127060   4.721   1.742   7.403 -0.3272 -0.8504 -0.8306
 3291TIP3    H227061   4.831   1.641   7.380 -0.2838 -0.6483 -1.5369
 3292TIP3   OH227062   5.521   5.833   1.387  0.3589 -0.2870  0.2781
 3292TIP3    H127063   5.485   5.757   1.432  0.0879 -0.0146  0.5296
 3292TIP3    H227064   5.449   5.866   1.333  0.7661 -0.7799 -0.5861
 3293TIP3   OH227065   2.925   6.391   6.293 -0.1720 -0.0502 -0.3059
 3293TIP3    H127066   2.902   6.347   6.375 -0.6410  0.7571  0.0058
 3293TIP3    H227067   2.890   6.333   6.225  0.5745 -0.9289  0.0302
 3294TIP3   OH227068   2.140   5.996   1.841 -0.4187  0.0309  0.6706
 3294TIP3    H127069   2.055   6.040   1.849 -0.5388 -0.1590  0.4198
 3294TIP3    H227070   2.127   5.911   1.884 -0.1501  0.2864  1.2690
 3295TIP3   OH227071   2.401   3.552   1.180 -0.1639 -0.8254 -0.1348
 3295TIP3    H127072   2.455   3.535   1.257  1.3176 -0.0578 -0.9588
 3295TIP3    H227073   2.386   3.646   1.181 -1.8591 -1.0742  0.2855
 3296TIP3   OH227074   2.943   2.047   7.407 -0.4945  0.3786  0.4169
 3296TIP3    H127075   3.013   1.982   7.406 -1.0003 -0.1760 -0.2712
 3296TIP3    H227076   2.968   2.111   7.341  0.1042  1.0105  1.2357
 3297TIP3   OH227077   0.895   6.246   7.114 -0.2766 -0.2001  0.2072
 3297TIP3    H127078   0.946   6.325   7.097 -0.9182  0.4388  1.1852
 3297TIP3    H227079   0.960   6.179   7.132  0.2457  0.4284  0.7071
 3298TIP3   OH227080   4.955   3.817   7.543 -0.4346  0.2809 -0.5153
 3298TIP3    H127081   4.961   3.744   7.604  0.3702  1.0352  0.3427
 3298TIP3    H227082   5.033   3.809   7.488 -0.3693  0.4587 -0.4510
 3299TIP3   OH227083   4.508   4.705   5.930 -0.3782  0.0881 -0.1680
 3299TIP3    H127084   4.583   4.739   5.881 -0.8399  0.5110 -0.5854
 3299TIP3    H227085   4.492   4.619   5.892 -1.1192  0.6640 -1.1903
 3300TIP3   OH227086   2.089   1.841   2.015  0.6075  0.0554  0.1659
 3300TIP3    H127087   2.135   1.894   1.950  0.0116  0.0964 -0.2197
 3300TIP3    H227088   2.108   1.884   2.098  0.4618  0.6367 -0.1006
 3301TIP3   OH227089   3.181   6.550   6.079 -0.8518  0.3656  0.0080
 3301TIP3    H127090   3.151   6.553   6.170 -2.2671  0.7083 -0.4533
 3301TIP3    H227091   3.105   6.521   6.029  0.8212 -3.5718 -0.6859
 3302TIP3   OH227092   1.466   4.200   0.287 -0.3296  0.5234  0.4014
 3302TIP3    H127093   1.505   4.189   0.200 -1.4653 -1.6056  0.0766
 3302TIP3    H227094   1.526   4.153   0.345 -1.8551 -2.1229  0.0057
 3303TIP3   OH227095   2.829   5.898   0.035 -0.0207  0.3854  0.2571
 3303TIP3    H127096   2.773   5.922  -0.038  0.2246  0.4856  0.0997
 3303TIP3    H227097   2.865   5.813   0.011  2.0391  1.5033 -0.9322
 3304TIP3   OH227098   2.060   4.236   6.985  0.6667 -0.4263  0.0611
 3304TIP3    H127099   2.094   4.291   7.056 -0.1049  0.0112  0.0992
 3304TIP3    H227100   2.116   4.256   6.910 -0.3623  1.3420 -0.2735
 3305TIP3   OH227101   5.247   1.188   6.612 -0.0550 -0.0429  0.0275
 3305TIP3    H127102   5.253   1.105   6.566  0.6297  0.5613 -1.0234
 3305TIP3    H227103   5.293   1.173   6.695  0.5161 -0.5658 -0.3743
 3306TIP3   OH227104   6.257   2.559   0.579  0.0266  0.3890  0.3118
 3306TIP3    H127105   6.325   2.496   0.600  0.5094  0.8704  0.2268
 3306TIP3    H227106   6.184   2.506   0.547  0.5533 -0.1010 -0.0984
 3307TIP3   OH227107   1.850   5.146   1.068 -0.1343  0.1365  0.4066
 3307TIP3    H127108   1.824   5.203   0.996 -0.2461 -0.2232  0.1593
 3307TIP3    H227109   1.858   5.205   1.144  1.0641  0.7133 -0.1322
 3308TIP3   OH227110   6.509   2.049   2.368 -0.0342  0.2494 -0.0332
 3308TIP3    H127111   6.546   1.963   2.349 -0.0326  0.0701  0.7558
 3308TIP3    H227112   6.414   2.037   2.358 -0.2118 -0.3758  1.9942
 3309TIP3   OH227113   5.523   6.145   0.878  0.7855 -0.3814 -0.3781
 3309TIP3    H127114   5.560   6.227   0.844 -1.0714  0.6177 -0.1401
 3309TIP3    H227115   5.506   6.163   0.970 -1.5690 -0.2388 -0.7729
 3310TIP3   OH227116   2.387   5.761   0.136 -0.0157 -0.0601 -0.0225
 3310TIP3    H127117   2.474   5.769   0.175 -1.0294 -0.5708  2.5225
 3310TIP3    H227118   2.350   5.849   0.140 -0.4882 -0.2925  1.1968
 3311TIP3   OH227119   1.791   4.192   0.200  0.0281 -0.2794 -0.2011
 3311TIP3    H127120   1.788   4.286   0.182  0.8430 -0.5245 -1.7558
 3311TIP3    H227121   1.881   4.167   0.181 -0.0156 -1.2729  0.8350
 3312TIP3   OH227122   0.480   1.933   2.060 -0.1793  0.0306  0.2070
 3312TIP3    H127123   0.543   1.964   1.995 -0.1468 -0.0019  0.2230
 3312TIP3    H227124   0.533   1.885   2.124 -0.2261 -0.0352  0.1968
 3313TIP3   OH227125   1.107   2.441   5.795  0.0413  0.1140 -0.4989
 3313TIP3    H127126   1.060   2.403   5.869  1.0432  1.8661  1.1531
 3313TIP3    H227127   1.051   2.513   5.766 -0.3627 -0.5907 -1.4908
 3314TIP3   OH227128   1.017   4.029   0.777 -0.6250 -0.5930 -0.0296
 3314TIP3    H127129   0.988   4.094   0.842 -0.6901 -0.9906  0.3431
 3314TIP3    H227130   1.040   4.081   0.700 -0.0647 -0.0739  0.4799
 3315TIP3   OH227131   6.578   2.597   7.628 -0.3574 -0.0263 -0.1998
 3315TIP3    H127132   6.547   2.587   7.538 -1.9594  1.8949  0.0749
 3315TIP3    H227133   6.534   2.527   7.676  1.3824 -1.7912 -1.0240
 3316TIP3   OH227134   6.242   0.670   1.588 -0.5244 -0.2449 -0.0331
 3316TIP3    H127135   6.214   0.618   1.664 -1.0483  0.1132  0.0208
 3316TIP3    H227136   6.214   0.620   1.512 -0.3576 -0.4061  0.0096
 3317TIP3   OH227137   6.280   1.081   7.475  0.3684  0.6248 -0.0294
 3317TIP3    H127138   6.353   1.084   7.413 -0.2570  0.6986 -0.7792
 3317TIP3    H227139   6.204   1.063   7.421 -0.0101 -0.6744  0.8880
 3318TIP3   OH227140   1.713   2.109   0.075  0.1511  0.5025  0.0763
 3318TIP3    H127141   1.768   2.036   0.046 -0.0286  0.1393  0.6305
 3318TIP3    H227142   1.651   2.069   0.136  0.1958  1.1597  0.5636
 3319TIP3   OH227143   2.885   3.790   6.558  0.3029  0.0183 -0.0390
 3319TIP3    H127144   2.950   3.769   6.625  0.2345  1.7961  0.6283
 3319TIP3    H227145   2.828   3.713   6.554  0.7263 -0.3939  1.4257
 3320TIP3   OH227146   5.179   4.148   5.689 -0.0982 -0.1866 -0.0864
 3320TIP3    H127147   5.160   4.060   5.724 -0.8407  0.7819  2.1187
 3320TIP3    H227148   5.233   4.189   5.756 -0.4511  1.3334 -0.6969
 3321TIP3   OH227149   4.411   6.114   0.462  0.2338 -0.3935  0.1056
 3321TIP3    H127150   4.328   6.142   0.424  0.5967 -1.2304 -1.4164
 3321TIP3    H227151   4.395   6.025   0.493  0.1346  0.0337  1.3075
 3322TIP3   OH227152   2.355   2.627   7.442 -0.3773  0.4049 -0.4103
 3322TIP3    H127153   2.379   2.690   7.510  0.4411 -1.3710  1.0306
 3322TIP3    H227154   2.378   2.670   7.360 -0.2003  2.1128  0.4880
 3323TIP3   OH227155   4.877   2.788   6.461  0.7969  0.2145  0.2877
 3323TIP3    H127156   4.805   2.756   6.406  0.6330  1.9060 -0.5547
 3323TIP3    H227157   4.854   2.758   6.550 -0.2693 -0.3650 -0.1582
 3324TIP3   OH227158   4.714   4.407   1.317 -0.1465 -0.5018  0.7544
 3324TIP3    H127159   4.668   4.432   1.397 -0.2884  0.6163  0.3401
 3324TIP3    H227160   4.732   4.313   1.328 -1.6093 -0.7396  1.3623
 3325TIP3   OH227161   2.916   5.565   0.215  0.5384 -0.2307 -0.4085
 3325TIP3    H127162   2.965   5.514   0.150 -0.0724 -2.0831  0.5077
 3325TIP3    H227163   2.843   5.509   0.239  0.6676  0.4357  1.7907
 3326TIP3   OH227164   3.834   1.402   5.735 -0.2007 -0.1503  0.5621
 3326TIP3    H127165   3.808   1.315   5.766  2.0448 -0.1992  2.5708
 3326TIP3    H227166   3.924   1.391   5.704 -0.4260  1.1536 -0.6502
 3327TIP3   OH227167   3.381   5.172   6.658  0.1459  0.5053  0.4393
 3327TIP3    H127168   3.446   5.125   6.710  1.4552  2.8252  1.0469
 3327TIP3    H227169   3.313   5.198   6.720 -0.6498 -0.6225  0.0785
 3328TIP3   OH227170   2.273   3.090   6.014  0.0420  0.2322 -0.1197
 3328TIP3    H127171   2.226   3.102   6.096  1.1285 -1.5614  0.8158
 3328TIP3    H227172   2.209   3.114   5.946 -1.1105  1.0253  1.1854
 3329TIP3   OH227173   0.346   3.354   1.217 -0.0800 -0.1439 -0.1102
 3329TIP3    H127174   0.322   3.414   1.147  1.6480 -0.6644 -1.2282
 3329TIP3    H227175   0.314   3.396   1.297 -2.3755  0.3262 -1.1876
 3330TIP3   OH227176   3.468   1.018   1.290 -0.0945  0.4814 -0.1129
 3330TIP3    H127177   3.542   1.076   1.269 -0.9217  2.2009  1.4286
 3330TIP3    H227178   3.391   1.065   1.258 -0.6910 -0.2594  0.2133
 3331TIP3   OH227179   2.792   2.992   0.912 -0.4095 -0.5086  0.2058
 3331TIP3    H127180   2.794   3.073   0.863  0.7153 -1.1024 -0.7960
 3331TIP3    H227181   2.807   3.018   1.003 -1.7718  0.5358  0.1547
 3332TIP3   OH227182   2.310   0.514   5.791 -0.2271  0.1115  0.0265
 3332TIP3    H127183   2.403   0.501   5.770  0.5607  2.7093  1.4121
 3332TIP3    H227184   2.290   0.443   5.852  0.0923 -1.8820 -2.0357
 3333TIP3   OH227185   1.589   3.437   1.873  0.3942 -0.4684 -0.8405
 3333TIP3    H127186   1.558   3.525   1.851  1.3607 -0.4779 -2.4196
 3333TIP3    H227187   1.634   3.447   1.957 -1.0857  0.1489 -0.0762
 3334TIP3   OH227188   4.697   4.008   0.812 -0.2856 -0.5365 -0.4952
 3334TIP3    H127189   4.720   4.025   0.903 -2.9937  0.9472 -0.0011
 3334TIP3    H227190   4.739   4.080   0.764 -0.0403 -0.5154 -0.2561
 3335TIP3   OH227191   4.128   0.684   7.188 -0.2677  0.1828 -0.2050
 3335TIP3    H127192   4.127   0.591   7.210  0.5984 -0.0937 -1.2553
 3335TIP3    H227193   4.202   0.719   7.239  1.5308 -0.3956 -2.2494
 3336TIP3   OH227194   0.860   5.499   0.049 -0.1107  0.1111  0.3383
 3336TIP3    H127195   0.842   5.580   0.098 -1.9729  0.4047 -0.7475
 3336TIP3    H227196   0.856   5.430   0.116 -2.1568  0.5478  0.7362
 3337TIP3   OH227197   2.869   1.661   0.250 -0.2788 -0.2397 -0.9583
 3337TIP3    H127198   2.964   1.667   0.240 -0.0319 -2.0546 -0.0872
 3337TIP3    H227199   2.851   1.567   0.251 -1.7655 -0.0161  1.4709
 3338TIP3   OH227200   0.561   5.330   0.351  0.2418 -0.2691  0.0668
 3338TIP3    H127201   0.638   5.275   0.337 -0.3242 -0.9581 -0.4099
 3338TIP3    H227202   0.535   5.358   0.264 -0.6136 -0.8367  0.1259
 3339TIP3   OH227203   3.548   2.891   1.048 -0.7709 -0.1097  0.2252
 3339TIP3    H127204   3.468   2.905   0.997 -0.5484  1.6742  0.3012
 3339TIP3    H227205   3.618   2.922   0.992  0.1194 -2.9933 -0.4303
 3340TIP3   OH227206   2.835   0.079   5.957 -0.4468  0.1902 -0.3858
 3340TIP3    H127207   2.896   0.137   5.913 -0.8417  2.4364  1.8119
 3340TIP3    H227208   2.879  -0.006   5.957  2.8153  1.6944  1.1943
 3341TIP3   OH227209   4.437   2.277   0.106 -0.1810  0.7988 -0.0833
 3341TIP3    H127210   4.349   2.303   0.080 -0.5900  0.1989  0.6566
 3341TIP3    H227211   4.495   2.326   0.048 -0.9993  1.2319 -0.5486
 3342TIP3   OH227212   3.894   4.583   6.893  0.2157  0.5538 -1.2634
 3342TIP3    H127213   3.888   4.493   6.860 -0.2170  0.7989 -1.8619
 3342TIP3    H227214   3.914   4.572   6.986 -0.7098 -0.1806 -1.1312
 3343TIP3   OH227215   1.271   4.338   1.821  0.7424 -0.5651 -0.7071
 3343TIP3    H127216   1.179   4.320   1.841  0.4843  0.9841 -0.4119
 3343TIP3    H227217   1.269   4.392   1.742  1.2853  0.8344  0.2035
 3344TIP3   OH227218   4.770   2.982   0.127 -0.1179 -0.0848 -0.5838
 3344TIP3    H127219   4.737   3.070   0.108 -1.9380 -0.4274  0.6814
 3344TIP3    H227220   4.858   2.996   0.162 -0.5245  1.2698 -0.0643
 3345TIP3   OH227221   5.546   4.754   0.760  0.0726  0.4277 -0.2346
 3345TIP3    H127222   5.553   4.796   0.674  0.4485 -0.2067 -0.5214
 3345TIP3    H227223   5.469   4.696   0.753 -0.3258  0.9027  0.0953
 3346TIP3   OH227224   0.960   4.249   1.634  0.6113 -0.1710 -0.2089
 3346TIP3    H127225   0.903   4.264   1.710  1.6812  1.6268  0.3023
 3346TIP3    H227226   0.968   4.335   1.593  3.7551 -0.0917  0.3371
 3347TIP3   OH227227   6.177   3.611   6.595 -0.3340 -0.1236 -0.1912
 3347TIP3    H127228   6.158   3.580   6.684 -2.4204  1.8335  0.1405
 3347TIP3    H227229   6.121   3.558   6.539 -2.1107  1.3396  0.1307
 3348TIP3   OH227230   4.537   0.829   0.598 -0.4919  0.4683 -0.9755
 3348TIP3    H127231   4.515   0.919   0.574 -0.7004  0.3555 -1.2127
 3348TIP3    H227232   4.487   0.813   0.678  0.5546  0.9952 -0.1910
 3349TIP3   OH227233   2.857   1.565   0.634 -0.0362  0.2925 -0.0021
 3349TIP3    H127234   2.925   1.505   0.664 -0.2647  0.3700  0.7059
 3349TIP3    H227235   2.867   1.642   0.690 -0.4484  0.4615 -0.1542
 3350TIP3   OH227236   4.379   6.452   7.295 -0.1044  0.1992 -0.1111
 3350TIP3    H127237   4.438   6.473   7.223 -2.4157  0.7306 -1.9855
 3350TIP3    H227238   4.338   6.536   7.317 -0.1657 -0.1437  1.1711
 3351TIP3   OH227239   5.982   2.600   1.368  0.1022  0.0934  0.5206
 3351TIP3    H127240   5.943   2.625   1.285 -0.0208  0.0044  0.5517
 3351TIP3    H227241   6.033   2.521   1.347 -2.8435 -2.1739  1.2152
 3352TIP3   OH227242   2.420   3.076   0.903  0.2282 -0.5892  0.3299
 3352TIP3    H127243   2.365   3.002   0.928  0.4444 -0.3808  1.4704
 3352TIP3    H227244   2.423   3.132   0.981  1.2428 -0.1009 -0.0397
 3353TIP3   OH227245   5.132   5.942   6.868  0.4843 -0.4963  0.3270
 3353TIP3    H127246   5.121   5.906   6.781 -1.7599 -1.2732  0.8626
 3353TIP3    H227247   5.077   6.021   6.869 -0.5215 -1.1774  1.3746
 3354TIP3   OH227248   1.028   0.945   6.774  0.8347 -0.3631  0.1372
 3354TIP3    H127249   1.039   0.850   6.764 -0.1861 -0.3864 -0.9679
 3354TIP3    H227250   0.946   0.955   6.821 -0.1898 -0.0154 -1.6593
 3355TIP3   OH227251   0.621   0.652   7.194  0.3989 -0.3558 -0.6301
 3355TIP3    H127252   0.637   0.710   7.119 -2.0754  2.9705  1.1281
 3355TIP3    H227253   0.666   0.695   7.267 -0.7169 -1.1616  0.5691
 3356TIP3   OH227254   2.926   2.312   1.400  0.0468 -0.2898  0.5954
 3356TIP3    H127255   2.851   2.364   1.430  0.7395  0.8207  0.4673
 3356TIP3    H227256   2.928   2.237   1.459 -0.6138  0.1422  1.1931
 3357TIP3   OH227257   1.331   5.742   6.258  1.0101  0.5489 -0.2681
 3357TIP3    H127258   1.314   5.650   6.235  1.1990  0.2760  0.6596
 3357TIP3    H227259   1.294   5.791   6.185 -0.9983 -0.1640  0.2000
 3358TIP3   OH227260   2.233   4.272   6.774 -0.1064 -0.0035  0.0038
 3358TIP3    H127261   2.207   4.265   6.682 -0.0353  1.2890 -0.1324
 3358TIP3    H227262   2.276   4.357   6.781 -2.3575  1.1111  1.7433
 3359TIP3   OH227263   4.711   4.149   1.686  0.0009 -0.0507 -0.0537
 3359TIP3    H127264   4.700   4.058   1.715 -0.0816  0.0671  0.2831
 3359TIP3    H227265   4.806   4.158   1.674  0.2195  0.3974  1.8241
 3360TIP3   OH227266   0.766   5.686   1.161  0.7765 -0.1827  0.1209
 3360TIP3    H127267   0.827   5.756   1.139 -1.5370  1.7176 -0.5830
 3360TIP3    H227268   0.791   5.659   1.250  3.6078 -0.6594 -0.7218
 3361TIP3   OH227269   3.323   2.174   5.233  0.4144  0.3238 -0.3629
 3361TIP3    H127270   3.287   2.261   5.216  0.3145  0.4770  0.5937
 3361TIP3    H227271   3.414   2.180   5.205  0.2448  0.5438 -0.8870
 3362TIP3   OH227272   2.068   6.250   5.539  0.1553 -0.3634 -0.6046
 3362TIP3    H127273   2.103   6.334   5.506  0.9769  0.6664  2.5407
 3362TIP3    H227274   1.974   6.263   5.541  0.1938  0.0758 -1.1527
 3363TIP3   OH227275   1.239   0.393   1.207 -0.1738 -0.2670  0.1740
 3363TIP3    H127276   1.318   0.372   1.156 -1.2374 -0.6707 -1.3937
 3363TIP3    H227277   1.179   0.322   1.187 -1.5179  0.8801  0.0049
 3364TIP3   OH227278   2.557   1.902   0.569  0.2170  0.5905  0.1459
 3364TIP3    H127279   2.641   1.903   0.523 -0.3227  1.2431 -0.8603
 3364TIP3    H227280   2.493   1.923   0.501 -0.8496 -0.6452  0.7279
 3365TIP3   OH227281   2.937   2.110   5.160  0.0702 -0.3138  0.6433
 3365TIP3    H127282   2.867   2.160   5.117 -2.0887 -2.1712  1.7290
 3365TIP3    H227283   2.971   2.169   5.227  1.5485  1.6070 -1.6790
 3366TIP3   OH227284   5.477   5.490   1.140  0.0565  0.2146 -0.3763
 3366TIP3    H127285   5.507   5.506   1.051  2.4877 -0.1124  0.3148
 3366TIP3    H227286   5.454   5.397   1.142  0.7013  0.0512 -0.4786
 3367TIP3   OH227287   2.124   2.578   2.765 -0.0988 -0.3439 -0.1233
 3367TIP3    H127288   2.130   2.604   2.673 -1.2773  1.6387  0.2956
 3367TIP3    H227289   2.165   2.650   2.813 -1.5362 -0.2461  1.0128
 3368TIP3   OH227290   4.216   2.778   0.944 -0.6410  0.6773  0.8027
 3368TIP3    H127291   4.305   2.812   0.951 -0.5639  0.9810 -1.1365
 3368TIP3    H227292   4.227   2.683   0.948 -0.1042  0.6748 -0.3131
 3369TIP3   OH227293   6.216   6.385   0.333  0.1199 -0.2357  0.2352
 3369TIP3    H127294   6.177   6.317   0.278 -2.3848  0.8813  0.4909
 3369TIP3    H227295   6.194   6.467   0.288 -0.9807  0.6343  2.2399
 3370TIP3   OH227296   4.391   5.228   1.157 -0.1296 -0.3209  0.2813
 3370TIP3    H127297   4.343   5.161   1.109  3.2145 -1.3285 -1.9897
 3370TIP3    H227298   4.421   5.289   1.090  1.8230  0.1584  1.5054
 3371TIP3   OH227299   2.286   4.286   1.254 -0.2691  0.1741  0.7719
 3371TIP3    H127300   2.313   4.209   1.204  0.3288  0.4513  0.6539
 3371TIP3    H227301   2.206   4.259   1.299 -1.2169  0.1366 -0.8615
 3372TIP3   OH227302   0.079   1.016   7.145  0.4096 -0.4530 -0.1113
 3372TIP3    H127303   0.049   1.070   7.073  1.3230  0.0672 -0.1115
 3372TIP3    H227304   0.147   0.960   7.107  1.3676  0.2777  0.4562
 3373TIP3   OH227305   0.381   4.008   1.084  0.2685  0.1799 -0.4778
 3373TIP3    H127306   0.447   3.987   1.151 -0.9689 -0.8519  0.4632
 3373TIP3    H227307   0.418   3.975   1.003  1.4491  0.7379 -0.2043
 3374TIP3   OH227308   4.216   1.777   6.419  0.2380 -0.0579  0.3074
 3374TIP3    H127309   4.286   1.798   6.357 -0.8755 -0.0989 -1.0172
 3374TIP3    H227310   4.253   1.710   6.476  0.4078 -2.2135 -2.1551
 3375TIP3   OH227311   5.995   5.909   0.268  0.0843  0.3273 -0.7696
 3375TIP3    H127312   6.056   5.971   0.308 -0.5564 -0.5697  1.8410
 3375TIP3    H227313   5.913   5.921   0.317 -0.5999 -1.2672 -1.4335
 3376TIP3   OH227314   5.544   2.456   2.119  0.1433 -0.8939 -0.1461
 3376TIP3    H127315   5.637   2.440   2.101 -0.2582 -1.0221 -2.3647
 3376TIP3    H227316   5.543   2.544   2.156  1.3019 -1.6611  1.9106
 3377TIP3   OH227317   2.318   3.195   1.720 -0.1546 -0.5352  0.5205
 3377TIP3    H127318   2.345   3.221   1.808  1.6262 -1.3684  0.2736
 3377TIP3    H227319   2.302   3.101   1.726  1.2882 -0.8693 -0.2918
 3378TIP3   OH227320   4.087   5.365   0.587  0.0894  0.5643  0.5443
 3378TIP3    H127321   4.054   5.451   0.561 -1.7052 -0.2672 -0.1527
 3378TIP3    H227322   4.025   5.335   0.654 -0.6483 -1.0374 -0.7651
 3379TIP3   OH227323   6.043   1.269   6.472 -0.2515 -0.9887  0.0158
 3379TIP3    H127324   5.972   1.297   6.529 -1.3309 -0.6983 -1.4260
 3379TIP3    H227325   6.091   1.205   6.524 -0.5489  0.0497  1.6336
 3380TIP3   OH227326   1.707   2.976   0.145 -0.3601  0.1162 -0.0795
 3380TIP3    H127327   1.749   2.960   0.060  1.5382 -1.4708  1.0741
 3380TIP3    H227328   1.618   2.942   0.135 -1.1676  2.4851 -2.2295
 3381TIP3   OH227329   4.194   3.992   6.767 -0.0038  0.0720  0.3919
 3381TIP3    H127330   4.207   4.065   6.707  1.4536 -0.7359 -0.3387
 3381TIP3    H227331   4.166   3.920   6.711 -1.0832 -0.0291  1.0542
 3382TIP3   OH227332   6.525   3.949   6.223 -0.2406 -0.2036  0.4384
 3382TIP3    H127333   6.447   3.898   6.244 -1.3142  1.2165  0.0881
 3382TIP3    H227334   6.511   4.033   6.267  1.6043 -0.2857  1.2559
 3383TIP3   OH227335   1.960   1.369   6.603 -0.7752  0.7384  0.1866
 3383TIP3    H127336   1.999   1.455   6.621  1.6476 -0.4026  0.7625
 3383TIP3    H227337   1.910   1.349   6.682  0.2017  0.8260  0.8436
 3384TIP3   OH227338   4.644   2.151   0.727 -0.0596  0.3273 -0.0298
 3384TIP3    H127339   4.663   2.245   0.730 -2.0379  0.7614  0.5691
 3384TIP3    H227340   4.621   2.129   0.817  2.2886 -1.2282  0.2825
 3385TIP3   OH227341   4.143   2.108   7.368  0.2888 -0.3087  0.4597
 3385TIP3    H127342   4.083   2.175   7.402  0.3700 -0.6070  1.2087
 3385TIP3    H227343   4.196   2.082   7.444 -0.0664 -1.5730  0.2930
 3386TIP3   OH227344   4.996   0.576   5.926 -0.1455  0.3960  0.0032
 3386TIP3    H127345   5.024   0.485   5.913  0.9176  0.4313  1.6698
 3386TIP3    H227346   5.075   0.628   5.909  0.2869  0.6861  2.5105
 3387TIP3   OH227347   2.058   1.863   4.098 -0.1648  0.2434  0.0667
 3387TIP3    H127348   2.118   1.864   4.173 -0.3157  1.2471  0.1896
 3387TIP3    H227349   1.971   1.864   4.137 -0.2658 -0.6493 -0.1197
 3388TIP3   OH227350   3.281   4.525   5.883 -0.3184 -0.5454  0.2180
 3388TIP3    H127351   3.323   4.603   5.847  0.4188 -1.8604 -1.9749
 3388TIP3    H227352   3.190   4.531   5.853 -0.8775  0.5226  1.9612
 3389TIP3   OH227353   3.667   3.980   6.144  0.5670  0.3045  0.3312
 3389TIP3    H127354   3.575   4.000   6.126  0.3725 -1.6619 -1.3579
 3389TIP3    H227355   3.706   3.967   6.058  2.0250 -0.4940  1.0680
 3390TIP3   OH227356   0.149   4.523   7.111  0.2606  0.3202 -0.1486
 3390TIP3    H127357   0.103   4.473   7.043 -1.5656  1.9695 -0.2224
 3390TIP3    H227358   0.111   4.610   7.106  3.3038  1.7758  0.0078
 3391TIP3   OH227359   3.763   5.350   0.305 -0.1338  0.2032  0.2779
 3391TIP3    H127360   3.776   5.256   0.315 -0.0651  0.3207  1.5005
 3391TIP3    H227361   3.843   5.382   0.263 -0.9474 -0.5255 -1.9756
 3392TIP3   OH227362   2.795   2.154   0.397 -0.7691  0.3830 -0.7772
 3392TIP3    H127363   2.779   2.188   0.309  2.0989 -1.5519 -2.2508
 3392TIP3    H227364   2.786   2.059   0.387 -0.8242  0.1508  1.1630
 3393TIP3   OH227365   1.009   1.237   6.399  0.0499 -0.2408  0.3172
 3393TIP3    H127366   1.033   1.328   6.414  0.0686 -0.3580  0.9865
 3393TIP3    H227367   0.943   1.242   6.329 -2.1701  0.5741  2.3164
 3394TIP3   OH227368   2.684   2.872   1.376 -0.2530  0.3399  0.2421
 3394TIP3    H127369   2.757   2.811   1.370 -0.6504 -0.0973 -0.1559
 3394TIP3    H227370   2.615   2.823   1.419 -1.0069  0.0969 -1.2046
 3395TIP3   OH227371   4.210   4.057   7.148 -0.2679  0.2390 -0.2747
 3395TIP3    H127372   4.181   4.109   7.073  1.2493  1.7490  0.1088
 3395TIP3    H227373   4.305   4.067   7.148 -0.1573 -0.5804  1.2413
 3396TIP3   OH227374   1.655   6.412   1.760 -0.5170  0.3360 -0.6210
 3396TIP3    H127375   1.595   6.469   1.808  1.5973  1.3667  0.9623
 3396TIP3    H227376   1.654   6.330   1.808 -2.0031 -0.3052 -1.6904
 3397TIP3   OH227377   2.370   3.069   6.968 -0.4527  0.3600  0.1233
 3397TIP3    H127378   2.365   3.066   7.063 -1.2801  1.8578  0.1409
 3397TIP3    H227379   2.419   3.149   6.949 -2.2724  1.3192 -0.7387
 3398TIP3   OH227380   4.341   3.363   0.862 -0.0322  0.2601 -0.4112
 3398TIP3    H127381   4.272   3.297   0.871 -0.4309  0.5037 -1.4674
 3398TIP3    H227382   4.423   3.314   0.865 -0.3317 -0.3187 -1.3479
 3399TIP3   OH227383   2.065   4.352   7.700 -0.3499  0.2664  0.3752
 3399TIP3    H127384   1.983   4.392   7.729 -0.0214  2.0084 -0.9753
 3399TIP3    H227385   2.046   4.320   7.612  0.7556  1.8541 -0.4688
 3400TIP3   OH227386   6.552   3.522   0.584 -0.2407 -0.4807 -0.0679
 3400TIP3    H127387   6.497   3.477   0.521  1.1274 -2.5367  0.1237
 3400TIP3    H227388   6.578   3.455   0.647  1.0165  0.8108  0.8858
 3401TIP3   OH227389   1.660   6.177   0.970  0.2729  0.7432 -0.3553
 3401TIP3    H127390   1.685   6.113   1.037 -0.9998  0.1362 -0.4242
 3401TIP3    H227391   1.681   6.262   1.008 -1.3392  0.4832  1.2680
 3402TIP3   OH227392   5.988   3.788   6.839  0.5877  0.0080  0.2451
 3402TIP3    H127393   5.964   3.783   6.747 -0.9015 -1.4362  0.6660
 3402TIP3    H227394   6.079   3.818   6.838  0.5771  0.1221 -1.6776
 3403TIP3   OH227395   1.454   0.677   7.339 -0.0989 -0.0158 -0.0298
 3403TIP3    H127396   1.549   0.668   7.326 -0.1111 -0.3211  0.0706
 3403TIP3    H227397   1.418   0.682   7.251 -0.0269 -0.3411 -0.0811
 3404TIP3   OH227398   2.381   4.088   6.971 -0.0891  0.0385  0.0881
 3404TIP3    H127399   2.438   4.149   7.018 -0.8705 -0.4733  1.7615
 3404TIP3    H227400   2.372   4.127   6.884  2.1597  0.5384  0.0042
 3405TIP3   OH227401   5.111   2.543   1.076  0.2136 -0.1920  0.0778
 3405TIP3    H127402   5.122   2.500   0.991  1.5110  0.4906 -0.1164
 3405TIP3    H227403   5.198   2.541   1.116 -0.1611  0.3928  0.9665
 3406TIP3   OH227404   1.217   4.582   5.440  0.4144 -0.3671 -0.2061
 3406TIP3    H127405   1.127   4.612   5.453 -0.1251 -1.4682 -1.1150
 3406TIP3    H227406   1.235   4.603   5.348  1.0600 -0.2219 -0.0464
 3407TIP3   OH227407   3.027   4.317   2.318 -0.5386 -0.2286 -0.6629
 3407TIP3    H127408   3.105   4.304   2.372  0.3856 -1.7286 -2.2447
 3407TIP3    H227409   2.980   4.389   2.360  1.1618  0.0214  0.9318
 3408TIP3   OH227410   3.138   0.579   0.368  0.0062  0.1212  0.0599
 3408TIP3    H127411   3.176   0.551   0.452  0.6685  1.6648  0.3115
 3408TIP3    H227412   3.205   0.635   0.329 -0.0766 -0.9683 -1.7768
 3409TIP3   OH227413   6.409   2.997   0.325  0.0460 -0.4331  0.0215
 3409TIP3    H127414   6.435   3.025   0.413 -1.1044  1.5129 -0.2019
 3409TIP3    H227415   6.404   2.902   0.331 -0.2839 -0.3397  2.1381
 3410TIP3   OH227416   1.113   1.375   1.736  0.5300  0.1576 -0.5595
 3410TIP3    H127417   1.068   1.437   1.793 -0.0279 -0.3322 -0.4552
 3410TIP3    H227418   1.049   1.306   1.720  0.9073 -0.0466 -1.2395
 3411TIP3   OH227419   3.853   1.924   7.103  0.3535  0.4029 -0.2144
 3411TIP3    H127420   3.909   1.998   7.128  1.9186 -0.1711 -1.8197
 3411TIP3    H227421   3.901   1.847   7.134 -0.3223 -0.0265 -0.2349
 3412TIP3   OH227422   4.585   1.155   6.597  0.6627 -0.2030  0.5107
 3412TIP3    H127423   4.532   1.076   6.586  1.6923 -0.7172 -1.0812
 3412TIP3    H227424   4.549   1.218   6.535  0.7117  0.1172  0.7997
 3413TIP3   OH227425   1.262   5.678   0.401 -0.7905  0.5487 -0.4427
 3413TIP3    H127426   1.225   5.762   0.373 -0.8948  0.5764 -0.2248
 3413TIP3    H227427   1.332   5.660   0.338 -0.8646  0.7283 -0.5758
 3414TIP3   OH227428   0.928   4.091   2.201  0.2576 -0.7977 -0.0386
 3414TIP3    H127429   0.865   4.119   2.135 -0.8099 -0.7870  0.9581
 3414TIP3    H227430   0.983   4.027   2.157 -0.1814 -0.4966 -1.0434
 3415TIP3   OH227431   3.363   4.965   1.151 -0.2874 -0.7126  0.0057
 3415TIP3    H127432   3.436   4.935   1.205 -0.5568  0.6319  1.1780
 3415TIP3    H227433   3.353   5.058   1.173 -1.7968 -0.6525 -0.7732
 3416TIP3   OH227434   4.467   6.554   0.015  0.6345 -0.0775  0.3498
 3416TIP3    H127435   4.387   6.581   0.061  0.1012 -2.0372  0.6444
 3416TIP3    H227436   4.517   6.507   0.081  0.7806 -1.1933 -0.5416
 3417TIP3   OH227437   6.329   2.726   0.366  0.4280  0.9229 -0.4798
 3417TIP3    H127438   6.419   2.696   0.380  0.4044  0.9714 -0.2357
 3417TIP3    H227439   6.280   2.692   0.441  0.4622  1.8321 -0.0329
 3418TIP3   OH227440   5.103   3.723   1.291 -0.3892  0.1489 -0.5561
 3418TIP3    H127441   5.122   3.637   1.253 -1.0020 -0.6419  0.8196
 3418TIP3    H227442   5.074   3.703   1.380 -1.1040  1.7574 -0.3997
 3419TIP3   OH227443   4.222   5.656   1.164 -0.1762 -0.3879  0.3746
 3419TIP3    H127444   4.131   5.639   1.186 -0.4584  1.1600  0.5360
 3419TIP3    H227445   4.255   5.573   1.128 -1.3630 -1.2339  1.1847
 3420TIP3   OH227446   1.066   0.667   0.333 -0.1189 -0.4699  0.1495
 3420TIP3    H127447   1.029   0.746   0.294  0.0969  0.5824  1.9677
 3420TIP3    H227448   1.020   0.595   0.289 -0.0890  0.6112 -1.7761
 3421TIP3   OH227449   2.012   5.754   1.905  0.4086  0.1111 -0.1658
 3421TIP3    H127450   2.071   5.719   1.972 -0.6638 -0.5066  0.4664
 3421TIP3    H227451   1.924   5.743   1.941 -0.3431 -1.7568 -2.3392
 3422TIP3   OH227452   1.481   1.107   0.856  0.3641 -0.3386  0.2802
 3422TIP3    H127453   1.391   1.085   0.879 -0.1847 -1.4039 -2.4865
 3422TIP3    H227454   1.535   1.061   0.920 -1.0049  0.9702  2.4795
 3423TIP3   OH227455   4.225   4.956   0.809  1.0882  0.0248  0.2201
 3423TIP3    H127456   4.156   4.910   0.857  0.5284 -0.5515 -1.0830
 3423TIP3    H227457   4.184   4.979   0.726  2.1906  0.5208 -0.1945
 3424TIP3   OH227458   2.142   0.014   6.853  0.0950 -0.2219  0.0645
 3424TIP3    H127459   2.191  -0.004   6.933  1.6656  0.6872 -0.6504
 3424TIP3    H227460   2.165  -0.058   6.794 -0.9927 -0.8448  0.3615
 3425TIP3   OH227461   4.859   4.753   7.382 -0.0046  0.3631 -0.6385
 3425TIP3    H127462   4.798   4.685   7.355  1.1428 -0.0294 -2.4568
 3425TIP3    H227463   4.889   4.791   7.299  0.3832  2.1831  0.3002
 3426TIP3   OH227464   2.299   2.782   1.196  0.3103 -0.5850  0.3779
 3426TIP3    H127465   2.359   2.836   1.144 -0.6643 -0.2645 -0.4540
 3426TIP3    H227466   2.331   2.790   1.286  1.3176 -0.1661 -0.0019
 3427TIP3   OH227467   0.920   1.590   0.800 -0.5680  0.4853  0.1253
 3427TIP3    H127468   0.956   1.587   0.889  1.8923 -0.1798 -0.8158
 3427TIP3    H227469   0.825   1.598   0.813 -0.2978  0.2854  2.7881
 3428TIP3   OH227470   4.982   1.170   7.552  0.1817 -0.0954 -0.0659
 3428TIP3    H127471   4.963   1.106   7.620 -1.1747 -1.1817 -1.3856
 3428TIP3    H227472   5.026   1.120   7.483 -0.1944  0.5387 -0.7858
 3429TIP3   OH227473   3.917   0.547   6.582 -0.3684 -0.4031  0.6931
 3429TIP3    H127474   3.856   0.521   6.513 -0.0407  0.3025  0.1342
 3429TIP3    H227475   3.987   0.482   6.577 -0.4759 -0.5102  0.5455
 3430TIP3   OH227476   4.168   2.804   6.699 -0.2993 -0.0403  0.5817
 3430TIP3    H127477   4.168   2.846   6.613  2.7739  1.2067  1.0667
 3430TIP3    H227478   4.137   2.872   6.759  0.6227  0.1765  0.8290
 3431TIP3   OH227479   1.920   5.595   6.501  0.0159 -0.1934 -0.0564
 3431TIP3    H127480   1.911   5.503   6.476 -3.7224  0.1816 -0.6998
 3431TIP3    H227481   2.014   5.608   6.511  0.7267 -3.9588 -0.2907
 3432TIP3   OH227482   3.062   2.818   7.025  1.0440 -0.2692 -0.2895
 3432TIP3    H127483   2.970   2.840   7.010  1.2461  0.4167 -0.5444
 3432TIP3    H227484   3.079   2.746   6.965  0.8429  0.0268 -0.7059
 3433TIP3   OH227485   5.288   0.573   6.266  0.0332 -0.1757  0.1369
 3433TIP3    H127486   5.204   0.527   6.255 -1.2008  1.9998  0.0008
 3433TIP3    H227487   5.320   0.543   6.351 -2.7665  1.6898  2.0056
 3434TIP3   OH227488   5.999   2.312   6.917  0.0341 -0.0847 -0.0527
 3434TIP3    H127489   5.948   2.320   6.998 -0.2234  1.5425 -0.3315
 3434TIP3    H227490   6.072   2.373   6.929 -1.4844  2.3531 -2.0372
 3435TIP3   OH227491   0.029   0.624   6.725  0.2912 -0.0589 -0.4719
 3435TIP3    H127492   0.019   0.617   6.631  0.2273 -1.7814 -0.3597
 3435TIP3    H227493   0.121   0.649   6.738  0.0909  1.0205 -0.9856
 3436TIP3   OH227494   0.944   6.436   1.506  0.1936  0.2121  0.1893
 3436TIP3    H127495   0.882   6.456   1.576  0.2169 -0.6687  0.4827
 3436TIP3    H227496   0.999   6.366   1.542  1.7318  1.3497  0.1394
 3437TIP3   OH227497   4.606   2.681   1.964 -0.5123 -0.2550  0.3217
 3437TIP3    H127498   4.608   2.744   1.892 -1.4579  0.7130  1.1146
 3437TIP3    H227499   4.683   2.626   1.950 -0.5906  0.0043 -1.3331
 3438TIP3   OH227500   2.681   1.185   6.004 -0.2972 -0.2764  0.1544
 3438TIP3    H127501   2.687   1.112   6.066 -1.0903 -1.2263 -0.8275
 3438TIP3    H227502   2.721   1.151   5.924 -1.4161  0.0583 -0.5675
 3439TIP3   OH227503   1.490   1.928   7.284  0.2469  0.6092 -0.0736
 3439TIP3    H127504   1.496   1.913   7.378 -0.2401 -0.2161 -0.1658
 3439TIP3    H227505   1.581   1.919   7.253  0.0887 -1.7027 -0.0344
 3440TIP3   OH227506   2.402   6.114   1.776 -0.4128  0.3485  0.5409
 3440TIP3    H127507   2.451   6.033   1.764  1.2243  1.3112  0.3651
 3440TIP3    H227508   2.320   6.087   1.818 -0.5148 -1.5305 -0.7573
 3441TIP3   OH227509   5.169   1.499   6.818 -0.6256 -0.3023 -0.3281
 3441TIP3    H127510   5.088   1.453   6.796 -1.5579  1.2203 -0.2081
 3441TIP3    H227511   5.214   1.509   6.734 -1.4048  0.3692 -0.6792
 3442TIP3   OH227512   2.223   4.720   5.837 -0.7833 -0.2323 -0.0552
 3442TIP3    H127513   2.273   4.791   5.879  1.3680  0.3086 -3.1585
 3442TIP3    H227514   2.172   4.764   5.769 -1.0604 -1.4206 -0.6367
 3443TIP3   OH227515   5.028   5.225   0.342  0.1122 -0.1041  0.7611
 3443TIP3    H127516   4.957   5.196   0.400  0.2687  0.0239  1.0180
 3443TIP3    H227517   5.024   5.164   0.268 -0.6785  0.2891  0.4584
 3444TIP3   OH227518   3.758   0.905   6.097 -0.3540 -0.1196 -0.4191
 3444TIP3    H127519   3.805   0.912   6.013  0.4324 -0.1831  0.0100
 3444TIP3    H227520   3.721   0.817   6.096 -0.2077 -0.1816 -0.6285
 3445TIP3   OH227521   4.294   4.952   2.013  0.3420  0.3080  0.1919
 3445TIP3    H127522   4.340   5.032   1.987 -1.0000  0.5392 -1.6857
 3445TIP3    H227523   4.325   4.885   1.952 -0.8562  0.1774 -0.3018
 3446TIP3   OH227524   5.275   5.646   0.729  0.6947 -0.2447  0.1435
 3446TIP3    H127525   5.231   5.584   0.671 -0.5122  0.9658 -0.2784
 3446TIP3    H227526   5.204   5.697   0.768  1.4496 -1.0095  2.7423
 3447TIP3   OH227527   3.390   5.016   0.129 -0.1404 -1.0164  0.6740
 3447TIP3    H127528   3.461   4.952   0.125  0.2084 -0.6396  0.7357
 3447TIP3    H227529   3.435   5.100   0.143 -0.4515 -0.5078 -1.0769
 3448TIP3   OH227530   2.391   4.245   1.554  0.0377  0.1449  0.4509
 3448TIP3    H127531   2.375   4.323   1.607 -0.7794  1.2891 -1.3724
 3448TIP3    H227532   2.464   4.271   1.497 -0.9622  0.0141 -0.9285
 3449TIP3   OH227533   5.818   1.963   2.062 -0.1313  0.2666 -0.8012
 3449TIP3    H127534   5.747   1.904   2.088  1.3468 -0.2898  2.6800
 3449TIP3    H227535   5.846   1.931   1.976 -2.0848 -1.4133 -0.8840
 3450TIP3   OH227536   1.650   5.216   7.302 -0.1498  0.2902 -0.3300
 3450TIP3    H127537   1.600   5.146   7.259  0.6824 -0.6377  0.1726
 3450TIP3    H227538   1.726   5.230   7.246 -1.4083  2.4159 -1.6380
 3451TIP3   OH227539   2.283   5.532   0.355  0.2422  0.2013 -0.4355
 3451TIP3    H127540   2.353   5.576   0.402  0.4670  0.9476 -1.4467
 3451TIP3    H227541   2.291   5.562   0.265 -1.4520  0.4109 -0.5536
 3452TIP3   OH227542   6.025   5.569   6.539  0.5256 -0.2170 -0.1461
 3452TIP3    H127543   6.048   5.492   6.488  0.5614 -0.0072 -0.4501
 3452TIP3    H227544   6.064   5.642   6.491  0.1908  0.0253 -0.0526
 3453TIP3   OH227545   6.413   3.283   1.574  0.1083 -0.1175  0.0289
 3453TIP3    H127546   6.390   3.191   1.584 -0.7437  0.1936  1.0772
 3453TIP3    H227547   6.384   3.305   1.486  1.4216 -1.1460 -0.6927
 3454TIP3   OH227548   4.285   3.649   0.243 -0.2800 -0.4783  0.1074
 3454TIP3    H127549   4.366   3.608   0.273  0.6979  1.3789  0.1198
 3454TIP3    H227550   4.300   3.743   0.254 -1.2157  0.1100 -2.8455
 3455TIP3   OH227551   0.086   1.131   1.804  0.0564 -0.2037  0.1924
 3455TIP3    H127552   0.157   1.189   1.830 -0.9305  0.7066  0.9477
 3455TIP3    H227553   0.118   1.043   1.825  0.9197  0.1986  0.6017
 3456TIP3   OH227554   0.469   1.184   7.096  0.1283  0.4405  0.0423
 3456TIP3    H127555   0.404   1.205   7.029  0.9010  0.8283 -0.6136
 3456TIP3    H227556   0.454   1.092   7.116  0.4757  0.0422 -1.3710
 3457TIP3   OH227557   6.471   5.322   7.367  0.4492  0.6323  0.5602
 3457TIP3    H127558   6.560   5.356   7.373  1.1171 -1.1893  1.9755
 3457TIP3    H227559   6.471   5.245   7.424 -2.0226  0.5455  0.5371
 3458TIP3   OH227560   4.294   4.052   5.639  0.1807  0.4786  0.0454
 3458TIP3    H127561   4.237   3.983   5.672  0.9398 -0.2471 -0.1147
 3458TIP3    H227562   4.266   4.131   5.686 -1.5786  0.3557 -0.7537
 3459TIP3   OH227563   5.839   5.842   0.621 -0.1240  0.3372  0.2704
 3459TIP3    H127564   5.856   5.781   0.693  0.4204  1.2885  0.9646
 3459TIP3    H227565   5.760   5.889   0.647  0.7608  1.5340  0.8287
 3460TIP3   OH227566   6.128   6.157   6.940  0.6607 -0.0781 -0.8971
 3460TIP3    H127567   6.162   6.144   6.851  1.0062 -0.6569 -0.6848
 3460TIP3    H227568   6.033   6.163   6.929  0.5298 -1.9470 -1.1296
 3461TIP3   OH227569   4.061   4.514   1.939  0.5627 -0.0087  0.4265
 3461TIP3    H127570   4.056   4.603   1.974  0.9540  0.1857 -0.0120
 3461TIP3    H227571   3.986   4.469   1.979  0.0185  0.6730  0.1914
 3462TIP3   OH227572   5.687   6.033   1.355  0.0649  0.2396 -0.0199
 3462TIP3    H127573   5.763   6.010   1.409 -0.7836  1.8635  2.0097
 3462TIP3    H227574   5.616   5.978   1.389 -0.5921  1.6212  0.9540
 3463TIP3   OH227575   1.508   1.545   7.256 -0.0604  0.2577 -0.4476
 3463TIP3    H127576   1.444   1.615   7.267 -0.4404 -0.1305 -0.1333
 3463TIP3    H227577   1.468   1.488   7.190  0.8943  1.0741 -1.7781
 3464TIP3   OH227578   1.804   0.143   0.180 -1.2413  0.3948 -0.5391
 3464TIP3    H127579   1.859   0.214   0.148 -0.0989  0.6115  1.7356
 3464TIP3    H227580   1.829   0.067   0.126 -2.6534  1.6267 -3.1640
 3465TIP3   OH227581   4.831   0.627   7.041 -0.2951 -0.0274 -0.4364
 3465TIP3    H127582   4.865   0.553   7.091  0.4261 -0.1711 -1.1199
 3465TIP3    H227583   4.904   0.653   6.985 -0.8376  0.6292 -0.8502
 3466TIP3   OH227584   1.024   5.031   5.920  0.0257  0.2205  0.1742
 3466TIP3    H127585   0.985   4.943   5.920 -1.1276  0.7169 -0.3292
 3466TIP3    H227586   0.953   5.089   5.894  0.5842  1.4020  1.1645
 3467TIP3   OH227587   6.467   1.100   7.288  0.1067 -0.1349 -0.6339
 3467TIP3    H127588   6.442   1.164   7.221 -1.2259 -0.0388 -0.0709
 3467TIP3    H227589   6.543   1.055   7.250 -0.1654  0.4126 -1.8966
 3468TIP3   OH227590   4.009   4.645   6.555  0.1830  0.1391 -0.1211
 3468TIP3    H127591   4.031   4.586   6.627  2.1219  0.4930 -0.3569
 3468TIP3    H227592   4.052   4.727   6.577 -0.5951  0.7713 -0.8839
 3469TIP3   OH227593   0.322   3.791   6.224 -0.0848  0.4018  0.3313
 3469TIP3    H127594   0.259   3.748   6.165  1.4111  2.0552 -2.6805
 3469TIP3    H227595   0.358   3.719   6.275 -1.5824 -1.1277 -0.6249
 3470TIP3   OH227596   3.764   2.301   0.047  0.3060 -0.1856 -0.7000
 3470TIP3    H127597   3.815   2.304   0.128  0.1146 -0.2616 -0.5792
 3470TIP3    H227598   3.763   2.209   0.022  2.0961  0.0466 -1.8750
 3471TIP3   OH227599   2.783   6.389   0.584 -0.5064  0.3209 -0.6352
 3471TIP3    H127600   2.816   6.329   0.517  0.4908 -1.1261  1.0763
 3471TIP3    H227601   2.772   6.472   0.537 -0.3085 -0.7312 -2.6894
 3472TIP3   OH227602   5.269   2.339   1.460  0.7183  0.0028 -0.8234
 3472TIP3    H127603   5.189   2.383   1.490  1.1314  0.6712 -0.6950
 3472TIP3    H227604   5.318   2.319   1.539  1.5833  1.3426 -0.9813
 3473TIP3   OH227605   5.180   0.302   6.132 -0.4065 -0.0581  0.4481
 3473TIP3    H127606   5.150   0.324   6.044 -0.5183 -0.4746  0.3819
 3473TIP3    H227607   5.246   0.234   6.119  1.6928  1.8686  0.4690
 3474TIP3   OH227608   5.642   4.171   7.562 -0.7581 -0.4318  0.0962
 3474TIP3    H127609   5.645   4.120   7.481  0.0390  1.5821 -1.2183
 3474TIP3    H227610   5.571   4.233   7.548  0.7562  1.3529 -0.0045
 3475TIP3   OH227611   6.157   2.999   1.889 -0.1184  0.0299 -0.2310
 3475TIP3    H127612   6.200   2.980   1.972 -0.9317  0.7626  0.3795
 3475TIP3    H227613   6.083   2.939   1.885 -1.1025  1.1490  0.4248
 3476TIP3   OH227614   4.081   0.266   0.634 -0.2824 -0.3909 -0.2980
 3476TIP3    H127615   4.017   0.301   0.572 -2.2227 -1.1119  1.1960
 3476TIP3    H227616   4.046   0.289   0.720  0.0612 -3.0636  0.6598
 3477TIP3   OH227617   2.245   1.625   1.070 -0.2548 -0.1031  0.7493
 3477TIP3    H127618   2.228   1.694   1.006 -0.9810 -1.8035 -1.0384
 3477TIP3    H227619   2.182   1.640   1.139  0.3109  1.6013  0.9459
 3478TIP3   OH227620   0.564   3.047   2.541 -0.0747 -0.3501 -0.3362
 3478TIP3    H127621   0.485   2.996   2.557 -0.3078  0.3865  1.0763
 3478TIP3    H227622   0.552   3.084   2.453 -0.6770 -1.3229 -0.6708
 3479TIP3   OH227623   6.107   1.540   7.069  0.1650  0.4228  0.0341
 3479TIP3    H127624   6.099   1.625   7.027 -0.2782 -0.3253 -1.4768
 3479TIP3    H227625   6.180   1.550   7.130 -1.4612  2.5798  1.7876
 3480TIP3   OH227626   5.600   3.615   6.170 -0.6664  0.7342 -0.2708
 3480TIP3    H127627   5.515   3.619   6.213 -0.6552  2.1116 -0.3312
 3480TIP3    H227628   5.663   3.608   6.242 -0.5997  3.7092  0.0714
 3481TIP3   OH227629   3.267   5.146   6.952  0.0170 -0.4763  0.0915
 3481TIP3    H127630   3.197   5.120   7.012  1.1920 -1.7519  0.9663
 3481TIP3    H227631   3.279   5.240   6.969 -1.9060 -0.0522 -0.5729
 3482TIP3   OH227632   2.742   3.326   1.721  0.3934 -0.2588 -0.2568
 3482TIP3    H127633   2.656   3.321   1.679  1.4889 -0.5299 -2.6119
 3482TIP3    H227634   2.723   3.322   1.815 -2.2184  0.7042 -0.6614
 3483TIP3   OH227635   4.351   1.850   5.990 -0.6332  0.4038 -0.1161
 3483TIP3    H127636   4.428   1.884   5.944 -1.1647  2.6031  0.5051
 3483TIP3    H227637   4.367   1.756   5.997  1.3201  0.5943 -1.2355
 3484TIP3   OH227638   1.374   1.432   5.972 -0.2242  0.2523 -0.1969
 3484TIP3    H127639   1.467   1.453   5.976 -0.1454 -0.0508 -0.4109
 3484TIP3    H227640   1.356   1.418   5.879 -1.1505  3.2242 -0.5719
 3485TIP3   OH227641   3.175   1.578   7.303  0.0887 -0.5513  0.0076
 3485TIP3    H127642   3.230   1.499   7.308  0.2887 -0.3887  0.4282
 3485TIP3    H227643   3.086   1.545   7.301  0.1189 -0.7677  1.3189
 3486TIP3   OH227644   1.826   3.576   1.080 -0.3737 -0.1581  0.2055
 3486TIP3    H127645   1.745   3.552   1.034 -0.7588 -0.7722  1.1625
 3486TIP3    H227646   1.838   3.506   1.144  0.4454  0.3916  0.6612
 3487TIP3   OH227647   4.620   0.595   1.210  0.3387  0.6752  0.1629
 3487TIP3    H127648   4.535   0.559   1.186  0.6176  0.2887 -0.2679
 3487TIP3    H227649   4.602   0.654   1.283 -0.1443 -0.2633  0.8157
 3488TIP3   OH227650   3.158   0.072   7.595 -0.6114  0.1564 -0.1577
 3488TIP3    H127651   3.087   0.062   7.532 -0.4193  0.6982 -0.4755
 3488TIP3    H227652   3.118   0.056   7.680 -0.3531 -3.1282 -0.5510
 3489TIP3   OH227653   5.178   0.487   7.269 -0.0150 -0.2754 -0.0087
 3489TIP3    H127654   5.147   0.431   7.198 -1.0723 -1.1461  1.0950
 3489TIP3    H227655   5.236   0.550   7.226 -0.2559 -1.0581 -1.5625
 3490TIP3   OH227656   2.100   1.315   1.961  0.5294  0.4618 -0.0131
 3490TIP3    H127657   2.080   1.226   1.988  1.0060  0.3711  0.0473
 3490TIP3    H227658   2.015   1.358   1.955  0.2656 -0.1003 -0.4097
 3491TIP3   OH227659   0.174   5.039   6.241 -0.1382 -0.3085  0.1198
 3491TIP3    H127660   0.109   5.000   6.182  0.0341  0.3085 -0.4900
 3491TIP3    H227661   0.140   5.126   6.260  1.2725  0.6661 -1.5189
 3492TIP3   OH227662   2.732   4.541   6.228 -0.8910  0.3420  0.0117
 3492TIP3    H127663   2.646   4.505   6.252 -1.2808  0.1369 -1.6018
 3492TIP3    H227664   2.714   4.630   6.200 -0.8624 -0.1981 -1.8704
 3493TIP3   OH227665   2.049   6.435   0.456 -0.2183  0.1897  0.2000
 3493TIP3    H127666   2.089   6.521   0.449  1.9772 -0.7987 -0.0533
 3493TIP3    H227667   2.022   6.413   0.367 -0.3819  0.4260  0.1906
 3494TIP3   OH227668   3.681   0.151   1.902 -0.5600 -0.4471 -0.0756
 3494TIP3    H127669   3.754   0.123   1.957 -0.6606  0.3053  0.4603
 3494TIP3    H227670   3.644   0.226   1.948 -1.4012 -0.5479 -0.5668
 3495TIP3   OH227671   1.730   1.912   7.153 -0.0720  0.8651  0.4134
 3495TIP3    H127672   1.782   1.977   7.199  0.7499  1.1084 -0.8039
 3495TIP3    H227673   1.757   1.920   7.061 -1.3215  0.0980 -0.0511
 3496TIP3   OH227674   4.322   3.409   6.472  0.0357 -0.1235 -0.8415
 3496TIP3    H127675   4.241   3.450   6.443 -0.5755  0.5555  1.6300
 3496TIP3    H227676   4.307   3.315   6.460 -1.1438 -0.0092 -0.3698
 3497TIP3   OH227677   1.094   2.615   7.229 -0.8787  0.6737 -0.3787
 3497TIP3    H127678   1.067   2.585   7.316  0.6238 -0.1538 -0.1784
 3497TIP3    H227679   1.113   2.708   7.242 -2.1224  0.9228 -0.1897
 3498TIP3   OH227680   0.083   3.247   1.609 -0.7572  0.1522 -0.2766
 3498TIP3    H127681  -0.012   3.248   1.600 -0.7966 -0.4473  0.0667
 3498TIP3    H227682   0.105   3.337   1.634 -1.2587  0.2312 -0.1029
 3499TIP3   OH227683   3.290   3.224   1.615  0.0728 -0.2387 -0.1381
 3499TIP3    H127684   3.321   3.297   1.561  0.8781 -1.5703 -1.5679
 3499TIP3    H227685   3.196   3.237   1.622  0.1573  0.7518 -0.6856
 3500TIP3   OH227686   1.045   1.291   5.427  0.1660  0.4083  0.4247
 3500TIP3    H127687   0.950   1.277   5.433 -0.2941  1.8813 -2.2296
 3500TIP3    H227688   1.079   1.210   5.388  0.0085 -0.0035  1.1117
 3501TIP3   OH227689   0.124   3.635   6.798 -0.3735  0.0192 -0.4235
 3501TIP3    H127690   0.075   3.674   6.871  0.1518 -0.9408  0.4650
 3501TIP3    H227691   0.063   3.571   6.761 -0.6135  0.4541 -0.7908
 3502TIP3   OH227692   1.039   4.261   5.673 -0.4488  0.8592 -0.8305
 3502TIP3    H127693   1.093   4.265   5.752 -0.9141  2.0164 -0.5509
 3502TIP3    H227694   0.962   4.211   5.700  0.0659 -0.0314 -0.9812
 3503TIP3   OH227695   0.124   4.866   0.094  0.1131  0.0156  0.1367
 3503TIP3    H127696   0.172   4.890   0.015 -0.8941  1.8815  0.0270
 3503TIP3    H227697   0.038   4.838   0.063 -0.0815  0.1698  0.5237
 3504TIP3   OH227698   0.906   4.805   7.148  0.0148 -0.1276 -0.3633
 3504TIP3    H127699   0.933   4.887   7.105  0.7355 -0.8190 -1.2908
 3504TIP3    H227700   0.988   4.763   7.173 -0.3336 -0.7136 -0.1849
 3505TIP3   OH227701   5.658   3.969   7.372  0.2985  0.3092  0.2144
 3505TIP3    H127702   5.646   3.912   7.296  2.6186  0.7696 -0.5914
 3505TIP3    H227703   5.635   3.914   7.447 -0.3464 -0.7240 -0.7012
 3506TIP3   OH227704   2.177   3.577   6.885 -0.3100  0.1932  0.0926
 3506TIP3    H127705   2.252   3.609   6.935  0.6403 -2.1234  0.2847
 3506TIP3    H227706   2.185   3.619   6.800  1.8361 -0.7490 -0.2326
 3507TIP3   OH227707   3.516   0.335   1.428 -0.7006  0.4618  0.4582
 3507TIP3    H127708   3.422   0.323   1.444 -0.5852 -1.8335 -0.2877
 3507TIP3    H227709   3.558   0.271   1.485  0.3112  0.2156 -0.5521
 3508TIP3   OH227710   5.277   3.123   2.393  0.0271 -0.4120  0.6406
 3508TIP3    H127711   5.301   3.037   2.358 -0.8673 -1.5320  2.6272
 3508TIP3    H227712   5.256   3.107   2.485 -0.0821  1.9672  1.1074
 3509TIP3   OH227713   2.751   0.369   7.188 -0.0787  0.0763  0.3703
 3509TIP3    H127714   2.659   0.345   7.174  0.3145 -0.8345 -0.8247
 3509TIP3    H227715   2.751   0.419   7.269 -1.5670 -0.3016  0.6246
 3510TIP3   OH227716   4.959   5.880   7.140 -0.5563 -0.2578  0.0030
 3510TIP3    H127717   5.018   5.864   7.066  0.4239 -0.9638  0.9087
 3510TIP3    H227718   4.905   5.954   7.112 -0.7248 -0.9936 -1.7068
 3511TIP3   OH227719   1.312   6.507   7.362 -0.2676  0.3079  0.4634
 3511TIP3    H127720   1.245   6.574   7.378 -0.3751  0.3316 -0.0522
 3511TIP3    H227721   1.282   6.462   7.282  0.0194 -0.0814  0.5709
 3512TIP3   OH227722   1.598   3.150   1.378 -0.3150  0.5167  0.0098
 3512TIP3    H127723   1.523   3.096   1.352  0.6112 -0.5532 -0.4790
 3512TIP3    H227724   1.593   3.152   1.474 -0.0646 -0.9236  0.0850
 3513TIP3   OH227725   2.454   2.870   5.951  0.0384  0.2282 -0.3170
 3513TIP3    H127726   2.419   2.958   5.943 -0.5780  0.0184  0.0118
 3513TIP3    H227727   2.484   2.848   5.863 -1.2691  0.1745 -0.7789
 3514TIP3   OH227728   5.181   5.149   0.929  0.6917 -0.7203  0.0401
 3514TIP3    H127729   5.267   5.186   0.908  1.2156 -1.7138  0.3594
 3514TIP3    H227730   5.194   5.101   1.010 -0.5594  0.4049  0.9437
 3515TIP3   OH227731   4.013   3.065   6.114 -0.3634 -0.2841 -0.8220
 3515TIP3    H127732   4.100   3.097   6.090  0.2231  1.1849  2.7158
 3515TIP3    H227733   4.016   2.971   6.098  2.0153 -0.3172 -0.4537
 3516TIP3   OH227734   3.530   1.257   1.072 -0.8070  0.3937 -0.2184
 3516TIP3    H127735   3.543   1.341   1.029 -0.3219  0.5332  0.1936
 3516TIP3    H227736   3.569   1.193   1.013 -0.6760  0.5205 -0.2696
 3517TIP3   OH227737   6.276   1.361   1.627 -0.3061  0.1879 -0.5661
 3517TIP3    H127738   6.367   1.389   1.613 -0.3765  0.0026 -1.4153
 3517TIP3    H227739   6.281   1.301   1.702  0.0785  1.1647  0.2265
 3518TIP3   OH227740   2.735   1.006   7.493 -0.3319 -0.0343  0.5497
 3518TIP3    H127741   2.808   0.945   7.485 -0.3467 -0.0436  0.4900
 3518TIP3    H227742   2.687   0.976   7.571  0.9773  1.2708  1.9422
 3519TIP3   OH227743   2.410   2.173   1.293  0.3746 -0.1287 -0.5178
 3519TIP3    H127744   2.402   2.223   1.212  0.5045  1.7627  0.5872
 3519TIP3    H227745   2.472   2.222   1.346 -1.6746  0.1501  1.7794
 3520TIP3   OH227746   0.875   2.305   0.416 -0.1454  0.6001 -0.4918
 3520TIP3    H127747   0.785   2.285   0.390  0.3240 -2.0696 -0.3622
 3520TIP3    H227748   0.920   2.325   0.334 -0.1678 -1.2503 -0.9974
 3521TIP3   OH227749   4.263   2.791   5.808 -0.2076  0.0711  0.0514
 3521TIP3    H127750   4.170   2.809   5.792 -0.4577  3.1260  3.3620
 3521TIP3    H227751   4.309   2.864   5.766  0.5281 -0.4503 -0.0670
 3522TIP3   OH227752   0.587   1.588   1.318 -0.0446  0.2303 -0.1268
 3522TIP3    H127753   0.593   1.678   1.352  1.0733  0.0556  0.1932
 3522TIP3    H227754   0.548   1.598   1.232  0.6082  1.1096 -0.3475
 3523TIP3   OH227755   1.726   0.366   7.246 -0.3618  0.0780 -0.2554
 3523TIP3    H127756   1.649   0.336   7.199 -0.6458 -2.0738  1.4307
 3523TIP3    H227757   1.798   0.314   7.211 -0.0731  0.4761 -0.2588
 3524TIP3   OH227758   4.657   1.940   6.720 -0.0914 -0.2659  0.1137
 3524TIP3    H127759   4.564   1.941   6.699  0.2896  1.6325 -1.9330
 3524TIP3    H227760   4.689   1.857   6.685 -0.5451  0.3764 -1.9886
 3525TIP3   OH227761   0.302   2.593   7.437 -0.4408 -0.2070 -0.0616
 3525TIP3    H127762   0.333   2.531   7.372 -0.9575  1.1271 -1.6391
 3525TIP3    H227763   0.232   2.642   7.393 -0.6895  0.8582  1.4298
 3526TIP3   OH227764   3.632   3.247   6.514 -0.1598 -0.0734  0.3688
 3526TIP3    H127765   3.628   3.263   6.608  1.6969  1.6326  0.2535
 3526TIP3    H227766   3.697   3.178   6.504  0.4245  0.4703  0.3195
 3527TIP3   OH227767   1.847   2.025   7.380 -0.2565 -0.4193 -0.4704
 3527TIP3    H127768   1.838   1.946   7.433 -1.0543  0.1289  0.2291
 3527TIP3    H227769   1.790   2.089   7.422  0.3628  0.5300 -1.0346
 3528TIP3   OH227770   5.120   1.934   1.385 -0.6522 -0.5008 -0.2649
 3528TIP3    H127771   5.141   1.862   1.326 -2.0346 -2.1229  1.1322
 3528TIP3    H227772   5.190   1.998   1.371  0.4358 -1.9566 -1.7694
 3529TIP3   OH227773   3.680   3.228   1.273 -0.2204 -0.2052  0.1070
 3529TIP3    H127774   3.663   3.143   1.314  0.1457 -0.0851  0.5177
 3529TIP3    H227775   3.664   3.214   1.180 -0.4165 -0.6563  0.2078
 3530TIP3   OH227776   5.698   2.496   1.062 -0.1907  0.2929 -0.6140
 3530TIP3    H127777   5.702   2.412   1.108  0.2295  1.3129  1.3652
 3530TIP3    H227778   5.614   2.496   1.017  0.2178 -1.5471 -1.4584
 3531TIP3   OH227779   4.785   0.353   7.140  0.7159  0.5792 -0.5271
 3531TIP3    H127780   4.836   0.307   7.074  1.2385  0.3778  0.0088
 3531TIP3    H227781   4.701   0.369   7.098  1.0894  0.5948 -1.2985
 3532TIP3   OH227782   5.350   0.774   1.221  0.5797  0.6502  0.2086
 3532TIP3    H127783   5.262   0.735   1.220 -0.2693  2.4272 -1.5520
 3532TIP3    H227784   5.408   0.701   1.198 -0.8608  0.1211 -2.1621
 3533TIP3   OH227785   1.459   2.346   1.372 -0.0739 -0.2139 -0.0116
 3533TIP3    H127786   1.514   2.271   1.351  1.2410 -0.1059  2.6270
 3533TIP3    H227787   1.520   2.415   1.397 -1.3341  0.7464  0.5463
 3534TIP3   OH227788   2.050   5.596   0.079  0.6612 -0.2795  0.5557
 3534TIP3    H127789   2.139   5.572   0.053 -0.2812  0.2356 -3.9987
 3534TIP3    H227790   1.996   5.521   0.053 -0.7980  1.6197 -2.5615
 3535TIP3   OH227791   3.105   4.836   7.641 -0.3754 -0.7217 -0.1403
 3535TIP3    H127792   3.180   4.892   7.619 -0.9294  0.4285  0.7814
 3535TIP3    H227793   3.104   4.835   7.737 -2.0301 -0.0250 -0.1246
 3536TIP3   OH227794   3.267   0.318   1.623  0.1810  0.1518 -0.5205
 3536TIP3    H127795   3.336   0.266   1.665  1.1463  0.8521 -1.1946
 3536TIP3    H227796   3.186   0.274   1.647  0.7674 -0.0451  1.2271
 3537TIP3   OH227797   0.667   1.374   0.013  0.1103  0.0869  0.4162
 3537TIP3    H127798   0.595   1.400  -0.045  0.8406 -0.3270 -0.7164
 3537TIP3    H227799   0.670   1.442   0.080 -1.8624 -0.3310  0.9699
 3538TIP3   OH227800   0.992   3.173   6.822 -0.4448 -0.2731  0.3986
 3538TIP3    H127801   1.080   3.209   6.832  0.1447 -1.4947 -0.1595
 3538TIP3    H227802   1.005   3.079   6.812 -1.8541 -0.5374  0.7491
 3539TIP3   OH227803   0.906   3.319   1.594 -0.4943  0.2132 -0.5439
 3539TIP3    H127804   0.993   3.353   1.614 -0.7459  0.6424 -0.1767
 3539TIP3    H227805   0.910   3.300   1.500 -0.3395  1.2393 -0.7547
 3540TIP3   OH227806   0.708   2.160   0.677 -0.7800  0.5112 -0.2854
 3540TIP3    H127807   0.717   2.079   0.728 -1.2402  0.7559  0.1958
 3540TIP3    H227808   0.771   2.150   0.606 -0.5566 -0.1048 -0.0146
 3541TIP3   OH227809   1.586   5.580   0.730  0.4720 -0.0552  0.1899
 3541TIP3    H127810   1.594   5.497   0.777  0.0308 -0.2335 -0.0456
 3541TIP3    H227811   1.496   5.609   0.747 -0.5623 -1.3480 -2.5417
 3542TIP3   OH227812   1.915   2.309   6.601 -0.4450 -0.4340  0.2555
 3542TIP3    H127813   1.928   2.338   6.511 -1.6082  2.6999  0.9756
 3542TIP3    H227814   1.976   2.236   6.612  2.1901  1.2528 -2.0456
 3543TIP3   OH227815   6.498   2.451   0.716 -0.0702 -0.0996 -0.1886
 3543TIP3    H127816   6.550   2.530   0.726  0.3801  0.0423 -2.8092
 3543TIP3    H227817   6.561   2.384   0.688 -0.7847 -0.8126 -0.1385
 3544TIP3   OH227818   4.704   6.484   2.042  0.0718 -0.1121  0.2471
 3544TIP3    H127819   4.785   6.444   2.072 -1.3039 -2.4869  1.0673
 3544TIP3    H227820   4.669   6.530   2.119  0.5090  0.7648 -0.0593
 3545TIP3   OH227821   2.391   2.688   6.741 -0.4208 -0.0734  0.0624
 3545TIP3    H127822   2.460   2.712   6.802 -0.8447  0.6392  0.2761
 3545TIP3    H227823   2.337   2.625   6.789 -0.4888  0.1320  0.2573
 3546TIP3   OH227824   0.032   5.483   7.427 -0.7853  0.4111  0.3308
 3546TIP3    H127825  -0.013   5.561   7.393 -1.5930  0.5803  1.7226
 3546TIP3    H227826   0.105   5.519   7.477 -0.3160  0.2032 -0.1918
 3547TIP3   OH227827   2.803   3.711   0.083 -0.4632  0.3088  0.4089
 3547TIP3    H127828   2.747   3.784   0.110 -0.7635 -0.3428  1.6142
 3547TIP3    H227829   2.776   3.638   0.139  1.8444  0.0797  1.3305
 3548TIP3   OH227830   1.074   6.197   1.579  0.2402  0.5283  0.0294
 3548TIP3    H127831   1.106   6.127   1.635 -1.4073 -0.9020 -0.7393
 3548TIP3    H227832   1.142   6.264   1.583 -0.0523  0.7957  4.1467
 3549TIP3   OH227833   2.643   4.312   0.209 -0.1100 -0.1968  0.1416
 3549TIP3    H127834   2.628   4.397   0.169  0.7843  0.0033  0.2152
 3549TIP3    H227835   2.621   4.248   0.141 -0.9987  0.0769  0.1596
 3550TIP3   OH227836   0.149   0.809   0.227  0.2682 -0.1579 -0.1019
 3550TIP3    H127837   0.227   0.829   0.278  1.7818 -3.3329 -0.9262
 3550TIP3    H227838   0.097   0.752   0.284 -0.1425 -0.2601 -0.5721
 3551TIP3   OH227839   4.318   3.992   0.787  0.2670  0.0717  0.1727
 3551TIP3    H127840   4.280   3.907   0.810  0.7860  0.1970  1.6105
 3551TIP3    H227841   4.304   4.000   0.693  0.7640 -1.8957 -0.1165
 3552TIP3   OH227842   2.806   1.897   2.153 -0.0508  0.2364 -0.4390
 3552TIP3    H127843   2.762   1.820   2.188  0.6099 -0.2127 -0.5849
 3552TIP3    H227844   2.886   1.905   2.205  0.3160  0.3042 -0.9998
 3553TIP3   OH227845   0.721   0.471   5.667  0.5154 -0.3338  0.0035
 3553TIP3    H127846   0.651   0.524   5.627 -1.0238 -0.4564  2.3354
 3553TIP3    H227847   0.775   0.535   5.714 -0.1361 -0.5940  1.1240
 3554TIP3   OH227848   2.426   1.259   5.894  1.0626  0.2198 -0.5845
 3554TIP3    H127849   2.379   1.261   5.977  0.4492  2.8236 -0.9037
 3554TIP3    H227850   2.518   1.245   5.918  0.8170  0.3288  0.4601
 3555TIP3   OH227851   0.047   0.529   0.276  0.2043  0.1061 -0.2350
 3555TIP3    H127852   0.010   0.469   0.212  0.1499 -1.1951  0.9715
 3555TIP3    H227853   0.142   0.511   0.273  0.0726 -0.9630  0.9759
 3556TIP3   OH227854   6.316   0.924   1.098  0.1950  0.8263  0.3796
 3556TIP3    H127855   6.266   0.983   1.154 -2.6241 -1.8190  0.8937
 3556TIP3    H227856   6.364   0.869   1.159 -1.3491 -0.7827  0.2116
 3557TIP3   OH227857   3.476   2.792   6.499  0.5234 -0.1660  0.0806
 3557TIP3    H127858   3.541   2.837   6.446 -0.6307 -0.6846 -1.8584
 3557TIP3    H227859   3.393   2.832   6.475 -0.3304 -2.1055 -0.4065
 3558TIP3   OH227860   5.718   4.987   1.890  0.0959 -0.2818  0.1103
 3558TIP3    H127861   5.773   5.065   1.899  0.8569 -0.6612 -0.9987
 3558TIP3    H227862   5.631   5.021   1.867  0.3818  0.2468 -0.1990
 3559TIP3   OH227863   1.857   4.868   1.432 -0.1321  0.0860  0.4977
 3559TIP3    H127864   1.813   4.881   1.349  0.7784  0.1619  0.0157
 3559TIP3    H227865   1.789   4.884   1.498 -0.8178  0.1824 -0.2189
 3560TIP3   OH227866   5.533   1.482   6.063 -0.0999 -0.0691  0.3210
 3560TIP3    H127867   5.553   1.395   6.028  1.1566  0.7503 -1.1509
 3560TIP3    H227868   5.476   1.521   5.997  1.5221  1.1599 -0.4402
 3561TIP3   OH227869   4.357   3.630   7.731 -0.2039  0.0975  0.1816
 3561TIP3    H127870   4.311   3.665   7.807  0.1323  0.3660  0.2647
 3561TIP3    H227871   4.403   3.553   7.765 -1.8902 -1.1608 -0.2567
 3562TIP3   OH227872   4.871   5.771   1.546 -0.5566 -0.3797  0.5879
 3562TIP3    H127873   4.907   5.758   1.459 -0.3225  0.9266  0.4581
 3562TIP3    H227874   4.947   5.783   1.602 -0.6868 -1.7536  1.0907
 3563TIP3   OH227875   2.125   2.163   0.315  0.0791  0.8201  0.2291
 3563TIP3    H127876   2.077   2.089   0.276  0.1976  1.5269 -1.3410
 3563TIP3    H227877   2.071   2.239   0.294 -0.5607  1.1453  2.6876
 3564TIP3   OH227878   1.310   5.209   2.172  0.3059  0.0823 -0.2947
 3564TIP3    H127879   1.370   5.154   2.222 -0.2515 -0.6521 -0.4221
 3564TIP3    H227880   1.287   5.157   2.096 -1.1947 -0.0238  0.1982
 3565TIP3   OH227881   6.571   6.603   0.449 -0.7081 -0.3318 -0.5562
 3565TIP3    H127882   6.513   6.528   0.458 -2.3183  0.9540  0.2879
 3565TIP3    H227883   6.592   6.606   0.356  0.7440 -2.7378 -0.3992
 3566TIP3   OH227884   3.582   0.136   1.603 -0.7361 -0.4423 -0.0542
 3566TIP3    H127885   3.594   0.049   1.564  1.0272  0.2327 -1.1572
 3566TIP3    H227886   3.655   0.145   1.664 -0.4966  0.4885 -0.4500
 3567TIP3   OH227887   2.990   3.930   6.927 -0.8339 -0.9594 -0.3232
 3567TIP3    H127888   3.077   3.935   6.889 -1.0088 -0.0869 -0.6368
 3567TIP3    H227889   2.960   3.841   6.908  0.2156 -1.4691  0.3222
 3568TIP3   OH227890   6.377   5.182   0.032  0.3218 -0.2060  0.0797
 3568TIP3    H127891   6.401   5.232   0.110  0.5294 -1.5526  0.9113
 3568TIP3    H227892   6.329   5.245  -0.022  3.2563  1.8356 -0.4028
 3569TIP3   OH227893   1.555   4.267   0.738  0.3916  0.1548  0.4540
 3569TIP3    H127894   1.628   4.208   0.718 -0.8285 -0.5307 -2.5838
 3569TIP3    H227895   1.597   4.350   0.762  2.1563 -0.6156  0.1713
 3570TIP3   OH227896   1.564   2.594   0.229  0.3846 -0.2258 -0.2440
 3570TIP3    H127897   1.529   2.565   0.313 -0.0371  1.1912  0.1001
 3570TIP3    H227898   1.533   2.684   0.220  0.2694 -0.4089 -2.0062
 3571TIP3   OH227899   2.619   4.499   5.635 -0.0157  0.0046 -0.2869
 3571TIP3    H127900   2.620   4.467   5.545  2.2367 -2.1559  0.3762
 3571TIP3    H227901   2.689   4.450   5.679 -1.0314  0.9450  2.6672
 3572TIP3   OH227902   1.227   1.273   7.721  0.3629  0.0478  0.3941
 3572TIP3    H127903   1.246   1.244   7.632  0.5043 -0.7014  0.6553
 3572TIP3    H227904   1.141   1.315   7.715  0.0196 -0.6729  0.0318
 3573TIP3   OH227905   4.786   1.085   5.678  0.1545 -0.1001 -0.0633
 3573TIP3    H127906   4.698   1.054   5.657  0.9516 -0.6671 -2.8931
 3573TIP3    H227907   4.843   1.014   5.650  1.6797  1.4937 -1.1795
 3574TIP3   OH227908   1.118   0.708   1.500  0.0054  0.1591  0.7569
 3574TIP3    H127909   1.048   0.655   1.540  0.3019  0.0974  1.1957
 3574TIP3    H227910   1.071   0.779   1.456 -0.3777 -0.2876  0.4297
 3575TIP3   OH227911   0.918   4.680   5.405 -1.0244  0.3323  0.6205
 3575TIP3    H127912   0.838   4.627   5.411 -0.8138 -0.0328  0.2926
 3575TIP3    H227913   0.935   4.709   5.495 -2.4958  1.8825  0.4445
 3576TIP3   OH227914   1.561   4.835   6.587 -0.4641  0.2766  0.0859
 3576TIP3    H127915   1.470   4.806   6.576 -1.0465  1.3603  1.6935
 3576TIP3    H227916   1.584   4.873   6.502 -1.5397  0.0785 -0.3099
 3577TIP3   OH227917   2.369   1.365   6.652 -0.0447  0.5161 -0.3074
 3577TIP3    H127918   2.445   1.329   6.700 -0.8360  0.2727  0.8126
 3577TIP3    H227919   2.375   1.324   6.565 -0.1784 -1.3635  0.5075
 3578TIP3   OH227920   6.225   6.228   6.228 -0.6898  0.3513  0.1855
 3578TIP3    H127921   6.177   6.276   6.295  0.9536  1.0208  0.9425
 3578TIP3    H227922   6.172   6.237   6.149 -1.0488  2.3838  0.5976
 3579TIP3   OH227923   2.986   0.825   0.677  0.5162 -0.1784  0.1593
 3579TIP3    H127924   2.925   0.764   0.635  0.4078 -0.6830  1.0351
 3579TIP3    H227925   2.954   0.912   0.652  1.9060 -0.4209 -2.8940
 3580TIP3   OH227926   3.346   3.420   0.660  0.0333  0.6472  0.2894
 3580TIP3    H127927   3.369   3.509   0.685  0.5133  1.1335 -1.7410
 3580TIP3    H227928   3.422   3.387   0.613  0.0054 -0.9927  1.3013
 3581TIP3   OH227929   0.248   4.812   0.822  0.2595  0.0038 -0.4018
 3581TIP3    H127930   0.249   4.901   0.789  2.5584  0.5535  0.9261
 3581TIP3    H227931   0.200   4.818   0.905 -1.7681 -0.5506 -1.4613
 3582TIP3   OH227932   3.078   1.032   1.514  0.0836  0.6020  0.3885
 3582TIP3    H127933   3.013   0.962   1.501  0.1740  0.8606 -1.8516
 3582TIP3    H227934   3.063   1.062   1.603 -3.6602  1.3733 -0.3330
 3583TIP3   OH227935   3.919   4.615   7.502 -0.0908 -0.2499  0.3340
 3583TIP3    H127936   3.986   4.645   7.564  0.3194 -0.3286 -0.0587
 3583TIP3    H227937   3.842   4.668   7.522  0.1428 -0.0271  0.6728
 3584TIP3   OH227938   1.558   3.891   0.395  0.7613  0.1447 -0.0784
 3584TIP3    H127939   1.593   3.820   0.448  2.7918  0.0695 -1.4129
 3584TIP3    H227940   1.500   3.938   0.454  1.8846 -0.7175  1.8148
 3585TIP3   OH227941   4.339   5.005   7.193 -0.4660  0.6309  0.4623
 3585TIP3    H127942   4.313   5.029   7.104 -3.5457 -0.2186  1.0039
 3585TIP3    H227943   4.411   4.942   7.181 -1.6605 -0.4703 -1.5218
 3586TIP3   OH227944   4.995   2.181   7.352 -0.1461  0.1193  0.8595
 3586TIP3    H127945   4.942   2.108   7.323  0.3612 -0.7547  2.0239
 3586TIP3    H227946   4.998   2.172   7.448  0.7988  1.0419  0.9386
 3587TIP3   OH227947   5.042   3.562   0.711  0.3559 -0.6314 -0.4563
 3587TIP3    H127948   5.026   3.472   0.739  0.2976  0.0393  1.8196
 3587TIP3    H227949   5.134   3.578   0.733 -0.1866  0.5016  1.1850
 3588TIP3   OH227950   5.396   6.536   7.594  0.6627  0.0574 -0.8198
 3588TIP3    H127951   5.450   6.593   7.649  0.7825  0.2570 -1.1437
 3588TIP3    H227952   5.429   6.549   7.505 -1.8249  2.4981 -1.5355
 3589TIP3   OH227953   2.685   1.371   2.194  0.3005  0.0100 -0.4681
 3589TIP3    H127954   2.688   1.283   2.157 -0.5303 -0.4858  0.5838
 3589TIP3    H227955   2.753   1.370   2.262  1.0205  0.5369 -1.1652
 3590TIP3   OH227956   0.118   1.093   0.968  0.4696 -0.2056  0.8429
 3590TIP3    H127957   0.093   1.063   0.880 -1.9301 -0.0163  1.3810
 3590TIP3    H227958   0.211   1.112   0.961  1.3033 -3.9295 -0.6066
 3591TIP3   OH227959   3.096   2.555   5.074  0.0850  0.5372 -0.1145
 3591TIP3    H127960   3.034   2.548   5.147  0.9109 -0.8895  0.4974
 3591TIP3    H227961   3.063   2.628   5.022 -1.3932  0.6206  0.8624
 3592TIP3   OH227962   3.883   0.519   7.420 -0.3585  0.2850 -0.1289
 3592TIP3    H127963   3.877   0.548   7.328  0.6250 -1.0419 -0.6486
 3592TIP3    H227964   3.921   0.593   7.466  0.5695  0.4448 -1.1044
 3593TIP3   OH227965   2.940   1.389   0.218  0.6947 -0.3566  0.7288
 3593TIP3    H127966   3.029   1.355   0.226  1.3064  0.9190 -0.3660
 3593TIP3    H227967   2.887   1.329   0.271  2.0941 -1.5052  0.8922
 3594TIP3   OH227968   6.169   0.797   1.961  0.2923  0.0955 -0.0763
 3594TIP3    H127969   6.234   0.864   1.982 -0.0199  0.5364 -0.4960
 3594TIP3    H227970   6.211   0.714   1.984  0.9000  0.3965 -0.0986
 3595TIP3   OH227971   0.603   3.461   1.500 -0.5493 -0.8940  0.3082
 3595TIP3    H127972   0.588   3.454   1.595 -0.6060 -0.6122  0.3221
 3595TIP3    H227973   0.687   3.506   1.493 -0.4579 -1.0778  0.2243
 3596TIP3   OH227974   0.763   1.941   6.244  0.2217  0.5024 -0.3395
 3596TIP3    H127975   0.748   1.866   6.301 -0.2186 -0.1794 -1.3214
 3596TIP3    H227976   0.711   2.011   6.283 -0.7919 -0.2015 -0.3758
 3597TIP3   OH227977   6.357   0.656   0.984  0.2314 -0.3965 -0.3007
 3597TIP3    H127978   6.284   0.691   0.932 -0.2275 -0.9677 -0.0577
 3597TIP3    H227979   6.358   0.711   1.062  1.0335  0.5751 -0.9745
 3598TIP3   OH227980   2.195   6.203   7.721  0.0287 -0.3735  0.3137
 3598TIP3    H127981   2.170   6.140   7.789 -0.5162 -0.1983  0.2782
 3598TIP3    H227982   2.179   6.157   7.639  0.2383 -0.4163  0.2966
 3599TIP3   OH227983   2.135   4.516   1.589 -0.0321 -0.3329 -0.4523
 3599TIP3    H127984   2.160   4.519   1.497  0.4275 -4.1350 -0.6131
 3599TIP3    H227985   2.216   4.493   1.635 -0.2567  1.4730  0.9736
 3600TIP3   OH227986   2.773   0.645   1.954  0.1005 -0.7997  0.3316
 3600TIP3    H127987   2.866   0.664   1.963  0.4583 -2.5356  0.5392
 3600TIP3    H227988   2.767   0.593   1.874 -0.8512  0.1904 -0.2719
 3601TIP3   OH227989   2.034   3.716   0.967 -0.2050  0.1852  0.3745
 3601TIP3    H127990   1.954   3.665   0.977 -0.4852  0.7850  1.2826
 3601TIP3    H227991   2.008   3.792   0.915  0.2654 -0.6852 -1.1886
 3602TIP3   OH227992   0.493   3.069   0.116 -0.2268  0.0601  0.9687
 3602TIP3    H127993   0.440   3.050   0.194  0.6537 -0.8342  1.3651
 3602TIP3    H227994   0.537   2.987   0.096  2.2611  1.1306  1.6095
 3603TIP3   OH227995   1.478   3.153   6.136 -0.1827 -0.4650  0.0582
 3603TIP3    H127996   1.393   3.125   6.170  0.0138 -0.7778  0.2967
 3603TIP3    H227997   1.458   3.229   6.081 -0.6853 -0.8963 -0.3598
 3604TIP3   OH227998   4.797   0.761   0.484  0.1455  0.2496  0.8970
 3604TIP3    H127999   4.722   0.804   0.525  0.5554  2.3486 -0.3730
 3604TIP3    H228000   4.760   0.717   0.407  0.0885  0.5598  0.7455
 3605TIP3   OH228001   4.182   0.200   1.100 -0.1296 -0.5560 -0.3653
 3605TIP3    H128002   4.138   0.253   1.035  0.3148  0.3406  0.0494
 3605TIP3    H228003   4.249   0.152   1.052 -0.6044 -0.8275 -0.7587
 3606TIP3   OH228004   0.722   1.380   6.628 -0.0501  0.0693 -0.1669
 3606TIP3    H128005   0.747   1.369   6.720 -2.2982 -1.0860  0.3855
 3606TIP3    H228006   0.705   1.292   6.597 -3.1356  0.6530 -0.4551
 3607TIP3   OH228007   2.509   5.521   6.603 -0.1256  0.3592 -0.3251
 3607TIP3    H128008   2.514   5.524   6.698 -1.3258 -1.3785 -0.1468
 3607TIP3    H228009   2.425   5.562   6.583 -0.6693 -0.7526 -0.4526
 3608TIP3   OH228010   4.177   3.883   1.365 -0.5029  0.4055 -0.0809
 3608TIP3    H128011   4.182   3.972   1.400  4.0291  0.2701  0.2677
 3608TIP3    H228012   4.234   3.831   1.423 -0.4882 -1.9888 -2.0628
 3609TIP3   OH228013   1.591   1.175   0.300 -0.0623  0.1852  0.1779
 3609TIP3    H128014   1.504   1.169   0.260  0.2979 -0.3619 -0.5442
 3609TIP3    H228015   1.573   1.184   0.393 -0.9659  3.0886 -0.1759
 3610TIP3   OH228016   3.418   5.695   1.861  0.3488  0.3499  0.0650
 3610TIP3    H128017   3.323   5.697   1.877  0.2602  0.2677 -0.4416
 3610TIP3    H228018   3.444   5.605   1.880 -0.3051 -0.6786 -3.2466
 3611TIP3   OH228019   6.314   6.424   1.112 -0.0449  0.2994 -0.4305
 3611TIP3    H128020   6.299   6.497   1.172 -3.9080  0.5138 -1.4056
 3611TIP3    H228021   6.303   6.346   1.166 -0.1576  0.4697 -0.2045
 3612TIP3   OH228022   4.500   3.621   6.370  0.2234  0.1933  0.3916
 3612TIP3    H128023   4.583   3.595   6.332 -1.1992 -1.1261 -2.0949
 3612TIP3    H228024   4.468   3.541   6.414  0.2332  0.6741  1.2932
 3613TIP3   OH228025   1.298   0.909   0.356 -0.1562 -0.1595  0.1949
 3613TIP3    H128026   1.309   0.996   0.316  3.7351 -0.7881 -0.5592
 3613TIP3    H228027   1.269   0.853   0.284 -0.5335  0.0981  0.1447
 3614TIP3   OH228028   3.884   5.043   1.692  0.4440  1.1752 -0.0803
 3614TIP3    H128029   3.799   4.999   1.690  1.1526 -0.3353  1.0776
 3614TIP3    H228030   3.863   5.136   1.701 -1.0878  0.7379  1.3146
 3615TIP3   OH228031   6.456   1.766   1.708  0.6762 -0.3106  0.9018
 3615TIP3    H128032   6.407   1.816   1.773 -0.8669 -0.1039 -0.3486
 3615TIP3    H228033   6.409   1.682   1.702  1.3685 -0.6911  0.7409
 3616TIP3   OH228034   4.588   3.665   0.358  0.7557  0.1761 -0.2381
 3616TIP3    H128035   4.577   3.574   0.386  0.5220  1.1314  3.2604
 3616TIP3    H228036   4.680   3.672   0.334  0.9066 -0.8730  0.0035
 3617TIP3   OH228037   0.293   6.571   1.008  0.0530 -0.3481  0.2475
 3617TIP3    H128038   0.307   6.641   1.072 -0.6597  0.3216 -0.3053
 3617TIP3    H228039   0.209   6.593   0.966 -0.4993 -1.8703  0.4876
 3618TIP3   OH228040   3.595   2.923   1.844  0.2825 -0.0855 -0.0340
 3618TIP3    H128041   3.650   2.959   1.913  1.0888 -1.9311  0.3410
 3618TIP3    H228042   3.513   2.899   1.888  0.7795 -1.2201  0.3101
 3619TIP3   OH228043   0.917   0.808   1.911  0.1872 -0.6842  0.1187
 3619TIP3    H128044   0.835   0.857   1.903  0.4739 -0.2176  0.0565
 3619TIP3    H228045   0.918   0.752   1.833  0.8562  0.7077 -0.9131
 3620TIP3   OH228046   1.652   2.878   1.512 -0.2638  0.3230 -0.1948
 3620TIP3    H128047   1.719   2.902   1.448  0.3499 -0.1853  0.2482
 3620TIP3    H228048   1.693   2.894   1.597 -0.6975 -0.0043  0.0830
 3621TIP3   OH228049   4.959   0.921   6.317 -0.4974  0.4711  0.1040
 3621TIP3    H128050   4.872   0.887   6.338 -0.5455  0.7357  0.3392
 3621TIP3    H228051   4.966   0.911   6.222 -0.9652  0.8607  0.0200
 3622TIP3   OH228052   0.396   5.971   7.281 -0.2921 -0.3762  0.4879
 3622TIP3    H128053   0.304   5.976   7.255 -0.1982 -0.9739  0.0106
 3622TIP3    H228054   0.442   6.026   7.217 -0.3789  0.3744  1.0647
 3623TIP3   OH228055   3.294   0.358   0.864 -0.4555 -0.4282 -0.2200
 3623TIP3    H128056   3.374   0.316   0.896 -0.2968  0.1054  0.0913
 3623TIP3    H228057   3.222   0.307   0.902 -0.2842  0.5505  1.4892
 3624TIP3   OH228058   0.939   5.089   0.084 -0.5158 -0.2000  0.2058
 3624TIP3    H128059   0.938   5.024   0.154  1.3915  1.0729  1.5081
 3624TIP3    H228060   0.956   5.172   0.129 -0.0264  0.7763 -1.6984
 3625TIP3   OH228061   2.122   1.852   7.471  0.0489 -0.4752 -0.0899
 3625TIP3    H128062   2.204   1.855   7.521  2.0758  0.2660 -3.1578
 3625TIP3    H228063   2.099   1.760   7.467 -0.1637 -0.5557  2.0740
 3626TIP3   OH228064   1.240   2.087   1.550  0.0450 -0.2011  0.7525
 3626TIP3    H128065   1.181   2.078   1.474  1.6135 -0.4067 -0.5005
 3626TIP3    H228066   1.223   2.175   1.583 -0.9183 -0.2341  0.3957
 3627TIP3   OH228067   5.540   5.482   1.674 -0.0066  0.1332 -0.0545
 3627TIP3    H128068   5.631   5.492   1.647  0.3226 -0.0758  0.9221
 3627TIP3    H228069   5.543   5.486   1.770 -1.1888  1.4332 -0.0421
 3628TIP3   OH228070   6.198   5.222   6.812 -0.5209 -0.3244  0.3025
 3628TIP3    H128071   6.192   5.147   6.752  0.4133 -0.6306  0.5804
 3628TIP3    H228072   6.192   5.183   6.899 -0.2957 -0.0439  0.4427
 3629TIP3   OH228073   1.172   4.420   7.322 -0.6159 -0.1036 -0.4364
 3629TIP3    H128074   1.077   4.419   7.331 -0.5034 -1.0565  0.8211
 3629TIP3    H228075   1.189   4.377   7.238 -1.2127 -2.0706  0.3964
 3630TIP3   OH228076   5.896   5.726   0.861  0.3409 -0.2017  0.1409
 3630TIP3    H128077   5.953   5.705   0.935  0.2734 -1.3179 -0.1050
 3630TIP3    H228078   5.809   5.735   0.899  0.4551  0.1120  0.3242
 3631TIP3   OH228079   0.029   3.636   1.564 -1.0917 -0.3146  0.4995
 3631TIP3    H128080  -0.038   3.690   1.524  0.5765  1.0860 -0.5242
 3631TIP3    H228081  -0.019   3.580   1.625 -3.1596  0.6351 -0.1665
 3632TIP3   OH228082   4.589   5.808   0.435 -0.6215 -0.7081  0.2626
 3632TIP3    H128083   4.512   5.833   0.485 -1.0126 -1.2934 -0.0422
 3632TIP3    H228084   4.559   5.802   0.344 -0.3870 -1.5807  0.2281
 3633TIP3   OH228085   3.840   1.005   7.466  0.2819 -0.5173 -0.0792
 3633TIP3    H128086   3.750   0.994   7.497 -0.4216  2.6404 -0.6527
 3633TIP3    H228087   3.862   0.922   7.424 -2.1717 -1.5338  0.5076
 3634TIP3   OH228088   1.014   0.227   6.963  0.0877  0.4470  0.0265
 3634TIP3    H128089   1.042   0.266   6.880  1.1451  1.2150  0.7341
 3634TIP3    H228090   0.960   0.152   6.936 -1.2112  1.7868 -1.3605
 3635TIP3   OH228091   3.031   2.467   5.412 -0.1146 -0.2031  0.1339
 3635TIP3    H128092   2.978   2.468   5.332 -1.0966 -0.0999  0.7687
 3635TIP3    H228093   3.062   2.557   5.422 -2.6245  0.5964  1.5392
 3636TIP3   OH228094   4.263   1.082   6.489  0.1704 -0.4097 -0.1245
 3636TIP3    H128095   4.212   1.163   6.489 -2.1985 -1.7944 -1.9793
 3636TIP3    H228096   4.249   1.045   6.576 -0.5888  0.0941 -0.0243
 3637TIP3   OH228097   1.369   0.632   1.463 -0.0922 -0.3730 -0.1313
 3637TIP3    H128098   1.280   0.661   1.477 -0.5909 -1.1256 -1.5320
 3637TIP3    H228099   1.421   0.712   1.460 -0.4570  0.0097  2.0795
 3638TIP3   OH228100   2.401   2.240   2.425 -0.1640  0.1901  0.3887
 3638TIP3    H128101   2.415   2.154   2.464 -1.1607 -0.2233 -0.1169
 3638TIP3    H228102   2.469   2.248   2.358  0.6564  0.2978  1.2269
 3639TIP3   OH228103   4.782   0.245   2.096 -0.3314 -0.2066  0.1776
 3639TIP3    H128104   4.859   0.258   2.153 -1.4555  0.9608  1.5193
 3639TIP3    H228105   4.731   0.178   2.140 -0.4819 -0.3899 -0.2737
 3640TIP3   OH228106   6.062   1.719   1.652 -0.5785 -0.3125  0.2897
 3640TIP3    H128107   6.014   1.724   1.570 -1.5040  0.2799  0.8529
 3640TIP3    H228108   6.148   1.684   1.627 -0.7312  0.1483 -0.9668
 3641TIP3   OH228109   1.394   0.114   2.376  0.2014  0.3650 -0.6077
 3641TIP3    H128110   1.308   0.081   2.403  0.3743 -1.0837 -1.6869
 3641TIP3    H228111   1.457   0.060   2.423  0.5002  0.0162 -1.3908
 3642TIP3   OH228112   3.717   0.744   5.236  0.0102 -0.8436 -0.3802
 3642TIP3    H128113   3.662   0.790   5.172  1.4654  1.4090 -0.1256
 3642TIP3    H228114   3.679   0.656   5.243 -3.8954  0.7396  0.2517
 3643TIP3   OH228115   4.173   4.571   5.947 -0.1083 -0.0063  0.1957
 3643TIP3    H128116   4.143   4.489   5.907 -0.2527 -0.5886  1.4446
 3643TIP3    H228117   4.171   4.634   5.875 -4.8894  0.1808  0.1574
 3644TIP3   OH228118   3.629   4.261   6.519  0.1165 -0.7573  0.0068
 3644TIP3    H128119   3.643   4.206   6.442  0.4271 -0.4529 -0.1535
 3644TIP3    H228120   3.691   4.333   6.509  0.3515 -0.8608  0.6743
 3645TIP3   OH228121   5.510   1.487   6.668 -1.3529  0.0779  0.3976
 3645TIP3    H128122   5.441   1.538   6.625 -1.4724  0.1926  0.7192
 3645TIP3    H228123   5.583   1.548   6.678 -0.5901 -0.4657 -1.3807
 3646TIP3   OH228124   6.065   4.671   7.422 -0.1471 -0.5580  0.3233
 3646TIP3    H128125   5.978   4.631   7.419 -0.8091  0.8645 -1.2095
 3646TIP3    H228126   6.079   4.704   7.333  1.6269 -0.0353  0.7517
 3647TIP3   OH228127   2.280   5.422   0.070 -0.7785 -0.2142 -0.0017
 3647TIP3    H128128   2.289   5.361  -0.003  1.3588  0.6591 -0.5209
 3647TIP3    H228129   2.317   5.376   0.145 -0.0285  0.0828 -0.1863
 3648TIP3   OH228130   4.622   2.264   7.628  0.2966  0.1627 -0.6561
 3648TIP3    H128131   4.581   2.178   7.623  2.0445 -0.6233 -3.5940
 3648TIP3    H228132   4.565   2.321   7.576 -0.2858  0.5856  0.4052
 3649TIP3   OH228133   1.832   0.723   5.373 -0.2463  0.3471 -0.0098
 3649TIP3    H128134   1.800   0.633   5.366  1.3466 -0.2815  0.3140
 3649TIP3    H228135   1.816   0.747   5.464 -0.2358  0.2011  0.0313
 3650TIP3   OH228136   5.856   1.398   7.148  0.6498  0.0424  0.1507
 3650TIP3    H128137   5.947   1.424   7.134  0.8519 -0.6704  0.1108
 3650TIP3    H228138   5.852   1.307   7.118  0.8186 -1.2210  3.5134
 3651TIP3   OH228139   6.352   1.613   1.261 -0.3098  0.0346 -0.1547
 3651TIP3    H128140   6.331   1.695   1.216 -0.3679  0.6498  0.9531
 3651TIP3    H228141   6.442   1.594   1.236  0.0346  0.9608  0.3388
 3652TIP3   OH228142   2.048   5.440   5.915 -0.2534 -0.0842  0.3578
 3652TIP3    H128143   1.958   5.448   5.946 -0.7008 -0.2740 -0.8062
 3652TIP3    H228144   2.074   5.529   5.892 -0.3221 -0.0875  0.2613
 3653TIP3   OH228145   0.326   4.721   1.975  0.3214  0.1488 -0.0154
 3653TIP3    H128146   0.351   4.813   1.983 -0.3263  0.3346 -0.1038
 3653TIP3    H228147   0.401   4.673   2.010  0.6101  0.7117  0.1522
 3654TIP3   OH228148   2.550   4.359   1.370  0.1126 -0.2992 -0.0828
 3654TIP3    H128149   2.480   4.324   1.315 -0.4290 -0.9124  0.9755
 3654TIP3    H228150   2.608   4.405   1.309 -1.1541  0.1382 -0.9829
 3655TIP3   OH228151   4.496   0.307   0.211 -0.2045  0.0281 -0.1405
 3655TIP3    H128152   4.572   0.250   0.220 -0.7786 -1.1717 -2.2842
 3655TIP3    H228153   4.534   0.393   0.190  0.6050  0.1335  1.5768
 3656TIP3   OH228154   2.349   4.539   6.886  0.4034  0.0786  0.1256
 3656TIP3    H128155   2.386   4.627   6.899  1.0075  0.2044 -2.1327
 3656TIP3    H228156   2.406   4.481   6.937  1.0257  0.7926  0.2635
 3657TIP3   OH228157   5.069   1.476   1.743  0.4345 -0.0876 -0.0967
 3657TIP3    H128158   4.999   1.438   1.796 -1.3725  0.7976 -1.7506
 3657TIP3    H228159   5.147   1.472   1.800 -0.7728 -1.7026  1.5500
 3658TIP3   OH228160   0.454   0.252   2.371  0.4871  0.1028 -0.0769
 3658TIP3    H128161   0.416   0.169   2.397  0.5262  0.6614  1.9811
 3658TIP3    H228162   0.546   0.233   2.355  0.3915 -0.3411 -0.0908
 3659TIP3   OH228163   3.370   5.528   7.492 -0.2690  0.5210  0.2745
 3659TIP3    H128164   3.400   5.581   7.566  0.3024 -0.6208  0.8946
 3659TIP3    H228165   3.375   5.438   7.524 -1.1564  0.0768 -0.7662
 3660TIP3   OH228166   2.403   2.433   6.341  0.2482  0.0262 -0.0082
 3660TIP3    H128167   2.470   2.483   6.388 -0.4009  1.9873 -1.0643
 3660TIP3    H228168   2.327   2.491   6.340 -1.7314 -2.3539  1.6532
 3661TIP3   OH228169   5.715   2.633   1.462  0.7226  0.2040 -0.2397
 3661TIP3    H128170   5.803   2.610   1.432  0.8627  0.2444  0.1260
 3661TIP3    H228171   5.712   2.601   1.552 -0.4635 -1.9385 -0.9851
 3662TIP3   OH228172   1.201   0.876   1.187  0.4851 -0.1156 -0.1150
 3662TIP3    H128173   1.112   0.859   1.218  0.5929  0.1757  0.3725
 3662TIP3    H228174   1.191   0.898   1.095  0.1093 -0.5937 -0.1958
 3663TIP3   OH228175   0.516   3.153   1.092 -0.0315 -0.2344 -0.5077
 3663TIP3    H128176   0.488   3.238   1.126  1.9078  0.6109 -0.8805
 3663TIP3    H228177   0.548   3.171   1.004  2.3427 -0.8913  0.1239
 3664TIP3   OH228178   0.540   3.388   7.241  0.3097 -0.1716  0.1313
 3664TIP3    H128179   0.466   3.437   7.275  0.1274 -0.0050 -0.4909
 3664TIP3    H228180   0.565   3.329   7.312  0.8841  1.1875  1.1092
 3665TIP3   OH228181   1.231   3.351   0.163 -0.3925 -0.0064 -0.2860
 3665TIP3    H128182   1.170   3.339   0.236  0.2434 -3.2177 -0.1612
 3665TIP3    H228183   1.176   3.346   0.085 -0.7599  1.1468 -0.1271
 3666TIP3   OH228184   0.373   0.179   0.353  0.0040 -0.4205  0.1275
 3666TIP3    H128185   0.457   0.137   0.371 -0.5086 -0.6316  2.2722
 3666TIP3    H228186   0.334   0.194   0.439 -2.0158 -0.0101 -0.7909
 3667TIP3   OH228187   3.389   4.763   5.769  0.3539 -0.3017  0.0484
 3667TIP3    H128188   3.476   4.768   5.730  1.6061 -0.0121  2.7065
 3667TIP3    H228189   3.360   4.854   5.776  0.6895 -0.2600  0.9456
 3668TIP3   OH228190   2.710   0.625   1.600  0.1106 -0.2385 -0.2621
 3668TIP3    H128191   2.773   0.574   1.651 -1.1051 -0.4818  1.0843
 3668TIP3    H228192   2.658   0.559   1.553 -0.4579 -0.1818  0.2657
 3669TIP3   OH228193   5.399   0.178   1.272  0.5691  0.7392  0.0130
 3669TIP3    H128194   5.370   0.095   1.236  1.5705  0.0530  0.7499
 3669TIP3    H228195   5.390   0.168   1.367  0.7221  1.4551  0.1123
 3670TIP3   OH228196   1.862   2.138   1.887  0.3684 -0.4596 -0.4894
 3670TIP3    H128197   1.795   2.206   1.894 -0.0001 -0.6881 -1.6935
 3670TIP3    H228198   1.933   2.178   1.837 -0.3194 -1.2770 -2.1889
 3671TIP3   OH228199   1.558   3.060   0.774  0.0485  0.0434 -0.2096
 3671TIP3    H128200   1.496   3.133   0.770 -1.0725 -0.8809 -0.3741
 3671TIP3    H228201   1.502   2.982   0.780  1.2063 -0.7258  1.2906
 3672TIP3   OH228202   3.680   1.943   1.753  0.0209 -0.4850  0.4761
 3672TIP3    H128203   3.699   2.036   1.762 -1.8666 -0.1787  2.0503
 3672TIP3    H228204   3.592   1.940   1.714  0.1395 -1.6141  0.2591
 3673TIP3   OH228205   2.068   0.067   0.101 -0.1864  0.9895  0.0967
 3673TIP3    H128206   2.086   0.125   0.027 -1.2568  1.0105 -0.1589
 3673TIP3    H228207   2.118  -0.012   0.082  2.2006  2.1908  0.9988
 3674TIP3   OH228208   4.769   1.145   7.084 -0.6367  0.6260 -0.2402
 3674TIP3    H128209   4.817   1.062   7.084  0.1335  0.9738  2.2754
 3674TIP3    H228210   4.719   1.144   7.003  0.1355 -1.8259 -0.7781
 3675TIP3   OH228211   0.495   1.921   7.191  0.6045 -0.0775  0.5162
 3675TIP3    H128212   0.518   1.926   7.284  0.1176 -0.0603  0.6391
 3675TIP3    H228213   0.439   1.843   7.184  0.3699  0.1095  0.2958
 3676TIP3   OH228214   6.150   1.600   6.708  0.0564  0.0296  0.2269
 3676TIP3    H128215   6.079   1.552   6.666  0.1161  0.2821 -0.1672
 3676TIP3    H228216   6.127   1.692   6.699  0.8146  0.1497 -0.6136
 3677TIP3   OH228217   4.758   4.680   6.186  0.6770  0.3816  0.0367
 3677TIP3    H128218   4.803   4.610   6.139 -0.2378 -1.0909  1.2471
 3677TIP3    H228219   4.670   4.683   6.148  0.2355 -0.1751  0.9776
 3678TIP3   OH228220   5.372   4.300   6.694  0.4234  0.0893  0.1245
 3678TIP3    H128221   5.356   4.366   6.761 -0.2782 -0.0613  0.1061
 3678TIP3    H228222   5.379   4.349   6.613 -0.1458  0.1368  0.1047
 3679TIP3   OH228223   3.104   0.921   6.991  0.0029 -0.1747 -0.7535
 3679TIP3    H128224   3.156   0.880   6.921  0.2194  0.3355 -0.8957
 3679TIP3    H228225   3.138   0.883   7.071 -0.9719 -1.5772 -0.9747
 3680TIP3   OH228226   2.074   4.942   1.015  0.0863 -0.2116 -0.0449
 3680TIP3    H128227   2.004   5.007   1.011 -1.1664 -1.5381 -1.9469
 3680TIP3    H228228   2.028   4.859   1.029  1.2307 -1.1301 -1.4228
 3681TIP3   OH228229   5.430   4.538   7.289 -0.3495 -0.2614 -0.5045
 3681TIP3    H128230   5.398   4.619   7.329 -1.4050 -1.4708  1.2295
 3681TIP3    H228231   5.488   4.567   7.219 -1.8833  2.0125 -0.9340
 3682TIP3   OH228232   3.402   4.265   0.891  0.2120 -0.0552  0.0627
 3682TIP3    H128233   3.391   4.298   0.802  0.2314 -0.8995 -0.2599
 3682TIP3    H228234   3.495   4.244   0.899 -0.3741 -3.8739 -1.1653
 3683TIP3   OH228235   5.572   4.942   6.639 -0.0441 -0.1240  0.5405
 3683TIP3    H128236   5.564   5.032   6.671 -2.0596 -0.7442  1.9717
 3683TIP3    H228237   5.540   4.945   6.549  2.9217  1.1102 -0.5780
 3684TIP3   OH228238   4.484   1.727   0.265  0.4533  0.4928  0.7212
 3684TIP3    H128239   4.547   1.786   0.307 -0.5110  1.9009  0.2852
 3684TIP3    H228240   4.413   1.785   0.237  0.2889 -0.6179 -1.3604
 3685TIP3   OH228241   5.395   5.107   7.392  0.4903 -0.1398  0.0339
 3685TIP3    H128242   5.390   5.015   7.367 -0.4634 -0.3178  0.8155
 3685TIP3    H228243   5.323   5.149   7.343 -0.3865 -0.2067  1.2182
 3686TIP3   OH228244   1.310   1.721   7.359 -0.5091  0.2145 -0.1617
 3686TIP3    H128245   1.371   1.787   7.328  0.9759  0.0802  2.2402
 3686TIP3    H228246   1.240   1.770   7.402 -0.8929  0.2767 -0.8347
 3687TIP3   OH228247   0.712   4.278   7.301 -0.5989 -0.7338  0.3901
 3687TIP3    H128248   0.762   4.223   7.362  0.5099 -1.3972 -1.0499
 3687TIP3    H228249   0.766   4.356   7.290 -0.2111 -1.1207 -0.5863
 3688TIP3   OH228250   0.129   2.975   7.362  0.3122  0.5540 -0.3192
 3688TIP3    H128251   0.106   3.063   7.332 -0.7695  0.3429 -0.1241
 3688TIP3    H228252   0.087   2.966   7.447  2.0865  0.5696  0.6173
 3689TIP3   OH228253   5.825   0.126   0.453  0.2022 -0.1366 -0.1831
 3689TIP3    H128254   5.732   0.103   0.446  0.3591 -0.7023 -0.4919
 3689TIP3    H228255   5.857   0.074   0.527 -0.3794  2.2931  1.9217
 3690TIP3   OH228256   6.170   5.486   0.162 -0.4899  0.3257 -0.6518
 3690TIP3    H128257   6.143   5.549   0.229 -1.2863  0.0435 -0.6904
 3690TIP3    H228258   6.244   5.528   0.118  1.7301 -0.5207  2.0121
 3691TIP3   OH228259   5.524   4.788   7.617  0.3816 -0.0287  0.0251
 3691TIP3    H128260   5.430   4.806   7.612  0.4853  0.8554  1.0927
 3691TIP3    H228261   5.531   4.697   7.588 -0.9620 -0.5420  1.1895
 3692TIP3   OH228262   3.237   4.356   0.154  0.5814 -0.2042 -0.2740
 3692TIP3    H128263   3.214   4.305   0.232  0.5566 -1.2647 -0.9599
 3692TIP3    H228264   3.322   4.394   0.174  1.7649 -2.4883 -0.6502
 3693TIP3   OH228265   3.811   1.736   6.562 -0.3712  0.7730  0.0819
 3693TIP3    H128266   3.815   1.831   6.554  0.6220  0.8869  1.6151
 3693TIP3    H228267   3.769   1.720   6.646 -2.2137 -0.2135 -0.9458
 3694TIP3   OH228268   0.300   6.026   6.342 -0.2627 -0.2362  0.2129
 3694TIP3    H128269   0.393   6.036   6.325 -0.6796  1.2630 -1.5352
 3694TIP3    H228270   0.269   5.966   6.274 -0.9831  1.3760 -0.9558
 3695TIP3   OH228271   2.377   0.232   1.135  0.2668  0.4497 -0.1174
 3695TIP3    H128272   2.373   0.143   1.098 -0.1380 -0.0748  1.1255
 3695TIP3    H228273   2.289   0.249   1.168  0.3465  1.3173 -0.3295
 3696TIP3   OH228274   3.849   0.334   5.624  0.1261  0.2653 -0.0512
 3696TIP3    H128275   3.814   0.324   5.535 -2.4436  0.8030  0.8316
 3696TIP3    H228276   3.816   0.259   5.672  0.7924  0.4192  0.6659
 3697TIP3   OH228277   5.965   5.914   7.717  0.0277  0.3686 -0.0074
 3697TIP3    H128278   5.998   5.888   7.803  1.2260  0.3297 -0.4624
 3697TIP3    H228279   5.995   5.846   7.658 -0.1611  0.7712 -0.5783
 3698TIP3   OH228280   0.154   1.170   0.323  0.1277  0.0526  0.2216
 3698TIP3    H128281   0.220   1.142   0.259  2.5354  0.9737  2.1225
 3698TIP3    H228282   0.137   1.262   0.300  1.0267  0.3971  0.8288
 3699TIP3   OH228283   6.500   1.408   7.653  0.0958 -0.0844  0.2695
 3699TIP3    H128284   6.474   1.332   7.705 -0.4544  0.5217  0.9059
 3699TIP3    H228285   6.426   1.468   7.660  0.4488  0.4361 -0.3654
 3700TIP3   OH228286   1.116   6.632   0.904 -0.3309  0.7029  0.4423
 3700TIP3    H128287   1.156   6.643   0.817  0.8669 -0.3599  0.8403
 3700TIP3    H228288   1.096   6.539   0.910 -1.8061  1.0008  0.7522
 3701TIP3   OH228289   3.962   3.951   1.203  0.0406  0.3699 -0.6783
 3701TIP3    H128290   3.994   3.994   1.124  0.8533  1.0898  0.0352
 3701TIP3    H228291   3.894   4.009   1.236 -2.8259 -1.5501 -2.6603
 3702TIP3   OH228292   0.773   3.435   7.523  0.1050  0.0566 -0.4048
 3702TIP3    H128293   0.802   3.374   7.456  1.2956  0.5685 -0.3836
 3702TIP3    H228294   0.741   3.512   7.475 -0.9419 -0.3680 -0.4182
 3703TIP3   OH228295   0.737   1.762   1.747 -0.1200  0.3714 -0.0383
 3703TIP3    H128296   0.827   1.777   1.774 -0.4883  0.8642  0.9522
 3703TIP3    H228297   0.697   1.715   1.820 -0.7563  0.4473 -0.3302
 3704TIP3   OH228298   3.281   0.369   5.230 -0.3295  0.6103 -0.5763
 3704TIP3    H128299   3.321   0.452   5.206 -1.0706  0.9984 -0.4911
 3704TIP3    H228300   3.338   0.334   5.299 -0.7889  1.7493  0.4279
 3705TIP3   OH228301   4.774   0.107   1.460  0.8802 -0.4870  0.3952
 3705TIP3    H128302   4.838   0.085   1.527  0.1979  0.1413  1.2838
 3705TIP3    H228303   4.695   0.131   1.509 -0.1334 -1.5115 -0.6694
 3706TIP3   OH228304   2.048   1.400   1.294  0.4013  0.1463 -0.0404
 3706TIP3    H128305   1.978   1.342   1.323  0.4042  0.0996 -0.1261
 3706TIP3    H228306   2.068   1.371   1.205  0.1107  0.5522 -0.2444
 3707TIP3   OH228307   0.633   0.443   7.645 -0.2619 -0.1399  0.0281
 3707TIP3    H128308   0.647   0.440   7.740  2.7065  0.8655 -0.2871
 3707TIP3    H228309   0.683   0.368   7.611  1.4773  1.3682 -0.9229
 3708TIP3   OH228310   2.610   6.550   0.754 -0.1495 -0.1555  0.1814
 3708TIP3    H128311   2.529   6.540   0.706 -0.0176 -0.9056  0.1084
 3708TIP3    H228312   2.675   6.501   0.704  0.4828  0.8973 -0.0645
 3709TIP3   OH228313   2.662   5.425   0.231 -0.2043  0.6010  0.1103
 3709TIP3    H128314   2.592   5.466   0.180 -0.1611  0.2905 -0.1994
 3709TIP3    H228315   2.636   5.438   0.322 -1.8223 -1.4533  0.0181
 3710TIP3   OH228316   3.284   0.099   0.250 -0.3670 -0.0202  0.4015
 3710TIP3    H128317   3.206   0.051   0.224 -1.5050  1.6318  0.6229
 3710TIP3    H228318   3.311   0.144   0.169  0.7856 -1.1037  0.1512
 3711TIP3   OH228319   1.209   4.738   0.657  0.4674  0.1618  0.0386
 3711TIP3    H128320   1.284   4.696   0.698  0.1955 -1.4529 -1.0432
 3711TIP3    H228321   1.224   4.729   0.563 -0.9505  0.0044 -0.1940
 3712TIP3   OH228322   1.525   4.998   7.169  0.3529  0.1131 -0.6797
 3712TIP3    H128323   1.446   4.944   7.158  0.9584 -0.5648 -1.9065
 3712TIP3    H228324   1.589   4.958   7.110  1.1598  1.5381 -0.8019
 3713TIP3   OH228325   2.316   5.216   7.321  0.4124 -0.0059 -0.0637
 3713TIP3    H128326   2.312   5.303   7.362 -0.3467 -1.0162  2.2156
 3713TIP3    H228327   2.251   5.219   7.251  1.2838  1.6189 -0.8455
 3714TIP3   OH228328   1.176   3.863   0.021 -0.2630 -0.1055  0.5301
 3714TIP3    H128329   1.245   3.804   0.050 -2.1738 -2.1328  1.1868
 3714TIP3    H228330   1.141   3.902   0.101 -0.6731 -0.0369  0.3252
 3715TIP3   OH228331   6.403   3.386   7.279 -0.1768 -0.1275  0.1520
 3715TIP3    H128332   6.383   3.474   7.310  1.2260  0.1094  0.4319
 3715TIP3    H228333   6.325   3.360   7.229 -0.7365  1.1314  0.3339
 3716TIP3   OH228334   0.925   5.353   2.034 -0.4004  0.2801 -0.2513
 3716TIP3    H128335   0.965   5.281   2.084 -0.8893  1.1009  1.4072
 3716TIP3    H228336   0.855   5.311   1.984 -0.5210 -0.4528  0.5044
 3717TIP3   OH228337   3.703   3.502   1.231  0.4569  0.2291 -1.1407
 3717TIP3    H128338   3.621   3.477   1.187 -0.8400  1.4709  0.4081
 3717TIP3    H228339   3.755   3.422   1.232 -1.6178 -1.2208 -0.3626
 3718TIP3   OH228340   1.225   1.296   0.583 -0.0511  0.4285  0.0379
 3718TIP3    H128341   1.319   1.288   0.566 -0.0722 -1.2401  0.5594
 3718TIP3    H228342   1.218   1.367   0.647  0.6544  1.8409 -1.3748
 3719TIP3   OH228343   6.430   4.202   0.359  0.2329  0.2714 -0.6172
 3719TIP3    H128344   6.510   4.226   0.407 -0.1105  1.5477 -0.6308
 3719TIP3    H228345   6.359   4.223   0.419 -0.1798  1.3828 -1.4619
 3720TIP3   OH228346   2.721   1.803   5.015  0.3920 -0.1559 -0.3244
 3720TIP3    H128347   2.805   1.803   5.061 -0.1479  0.9409  0.7049
 3720TIP3    H228348   2.674   1.728   5.052  1.7080 -2.2427 -2.5427
 3721TIP3   OH228349   0.638   0.873   6.472 -0.1943 -0.5248 -1.0308
 3721TIP3    H128350   0.622   0.798   6.414  0.9840 -1.6407  0.0409
 3721TIP3    H228351   0.708   0.921   6.429  0.6299 -1.3115 -0.5989
 3722TIP3   OH228352   0.931   6.158   6.649 -0.0436 -0.1068  0.1797
 3722TIP3    H128353   0.854   6.186   6.699  0.2144 -0.0871  0.5710
 3722TIP3    H228354   0.895   6.112   6.573 -0.4621  0.7239 -0.1382
 3723TIP3   OH228355   1.509   2.748   2.063  0.4086  0.1279 -0.9013
 3723TIP3    H128356   1.576   2.682   2.045 -0.2815 -0.7010 -0.4664
 3723TIP3    H228357   1.435   2.724   2.008  0.7481  1.5630 -2.0624
 3724TIP3   OH228358   6.130   6.137   2.015 -0.1654  0.6917 -0.6253
 3724TIP3    H128359   6.172   6.220   1.993 -1.3431  1.1060 -1.3934
 3724TIP3    H228360   6.040   6.161   2.039 -0.1740 -0.2364  0.3493
 3725TIP3   OH228361   4.947   6.124   6.742 -0.0294  0.0762  0.0696
 3725TIP3    H128362   4.972   6.204   6.697 -2.6235 -0.0821 -1.8394
 3725TIP3    H228363   4.931   6.151   6.833  0.2656  1.4432 -0.2770
 3726TIP3   OH228364   0.484   5.160   0.897  0.0085  0.1766  0.7152
 3726TIP3    H128365   0.410   5.156   0.957 -0.3712  1.0482  0.3132
 3726TIP3    H228366   0.518   5.249   0.906 -2.2506  1.6363 -2.8992
 3727TIP3   OH228367   1.478   2.974   1.060  0.1687 -0.5977  0.4290
 3727TIP3    H128368   1.547   3.039   1.041 -0.2300  0.1087  1.3097
 3727TIP3    H228369   1.442   2.951   0.975 -1.3191  2.1809  0.1869
 3728TIP3   OH228370   0.145   0.446   7.407  0.2933 -0.6671  0.1972
 3728TIP3    H128371   0.073   0.503   7.436 -0.1348 -1.3524  0.5098
 3728TIP3    H228372   0.168   0.395   7.485  0.4616 -1.1320 -0.1519
 3729TIP3   OH228373   1.423   2.672   0.486  0.0144 -0.2706 -0.2008
 3729TIP3    H128374   1.349   2.678   0.426 -1.4598  0.1807  1.5622
 3729TIP3    H228375   1.442   2.763   0.509  0.1522 -0.4653  0.4728
 3730TIP3   OH228376   5.899   6.355   6.872  0.1135 -0.4181  0.2803
 3730TIP3    H128377   5.927   6.358   6.963  1.1071  2.2339 -0.0274
 3730TIP3    H228378   5.803   6.360   6.876  0.2237  1.6205  1.1913
 3731TIP3   OH228379   5.870   5.414   1.135  0.1216 -0.0544  0.3755
 3731TIP3    H128380   5.888   5.505   1.114  0.4503 -0.6033 -2.0252
 3731TIP3    H228381   5.849   5.374   1.051  0.9881 -2.4330  1.2092
 3732TIP3   OH228382   6.222   6.635   0.715  0.3811  0.9363  0.6987
 3732TIP3    H128383   6.212   6.655   0.621 -0.6645  1.4987  0.9169
 3732TIP3    H228384   6.286   6.698   0.746 -1.1565  2.4900  0.8772
 3733TIP3   OH228385   5.240   1.461   7.339 -0.2524 -0.0985 -0.3816
 3733TIP3    H128386   5.254   1.369   7.314 -0.9098 -0.3506  0.1205
 3733TIP3    H228387   5.264   1.464   7.432  2.1255  0.8074 -0.9670
 3734TIP3   OH228388   1.975   1.806   5.890  0.4763  0.2493  0.1238
 3734TIP3    H128389   2.042   1.759   5.840 -2.0042 -0.2928 -3.0425
 3734TIP3    H228390   2.011   1.894   5.901  2.2011 -0.3514 -0.3037
 3735TIP3   OH228391   4.574   3.191   0.347  0.7140  0.3776  0.1508
 3735TIP3    H128392   4.498   3.239   0.314  0.4332  0.4343  0.8532
 3735TIP3    H228393   4.634   3.187   0.273  0.6029  1.5110 -0.0128
 3736TIP3   OH228394   2.035   5.196   6.174 -0.1353 -0.0103 -0.1360
 3736TIP3    H128395   1.950   5.230   6.146  0.1465 -0.0006 -1.0057
 3736TIP3    H228396   2.035   5.105   6.144  0.8302  0.4697 -1.6894
 3737TIP3   OH228397   4.488   2.902   0.899  0.0219 -0.1242 -0.1844
 3737TIP3    H128398   4.455   2.991   0.885  1.4279  0.6621  1.1618
 3737TIP3    H228399   4.490   2.893   0.994  0.4693 -1.3841 -0.3025
 3738TIP3   OH228400   5.547   6.188   1.198 -0.4946  0.3332  0.3317
 3738TIP3    H128401   5.471   6.135   1.222  0.2601 -0.5178  0.9172
 3738TIP3    H228402   5.621   6.141   1.236  0.2672  1.4611  0.2750
 3739TIP3   OH228403   3.250   2.236   1.715  0.0353  0.0566 -0.3184
 3739TIP3    H128404   3.322   2.226   1.778  0.0648  0.7618 -0.2356
 3739TIP3    H228405   3.172   2.207   1.762 -0.4897  3.4774  1.1787
 3740TIP3   OH228406   0.663   4.274   0.525  0.1107  0.1335 -0.6546
 3740TIP3    H128407   0.591   4.319   0.481  1.4250  3.0809 -0.1022
 3740TIP3    H228408   0.622   4.229   0.599 -1.6168 -1.7576 -2.6722
 3741TIP3   OH228409   2.537   0.164   6.976 -0.3494 -0.5015  0.3191
 3741TIP3    H128410   2.494   0.143   6.893 -0.6873  0.7375  0.1571
 3741TIP3    H228411   2.464   0.187   7.035 -0.1286 -1.5453  1.0211
 3742TIP3   OH228412   4.243   5.077   7.456  0.0039  0.1612 -0.6189
 3742TIP3    H128413   4.324   5.099   7.502 -0.3368  1.0408 -0.4182
 3742TIP3    H228414   4.269   5.070   7.364  0.3208  0.3545 -0.5468
 3743TIP3   OH228415   6.261   5.098   7.403 -0.0257  0.0104  0.6719
 3743TIP3    H128416   6.270   5.182   7.358  0.6594 -0.1663  0.4753
 3743TIP3    H228417   6.166   5.084   7.409 -0.1414 -0.3273 -1.3709
 3744TIP3   OH228418   5.040   1.599   1.491  0.6230  0.7563  0.3428
 3744TIP3    H128419   5.040   1.550   1.574 -3.2077  0.0290  0.0856
 3744TIP3    H228420   4.971   1.664   1.501  1.1549  1.7302 -1.7434
 3745TIP3   OH228421   2.946   3.615   1.115 -0.0910  0.4392 -0.0061
 3745TIP3    H128422   3.024   3.561   1.112 -0.3182  0.1306 -1.8636
 3745TIP3    H228423   2.903   3.591   1.197  0.3390 -1.4526 -0.2832
 3746TIP3   OH228424   4.156   1.849   1.703  0.3580  0.0456 -0.0878
 3746TIP3    H128425   4.096   1.779   1.678  1.7967 -1.1246 -0.4233
 3746TIP3    H228426   4.189   1.822   1.789  0.9934  0.2754 -0.2585
 3747TIP3   OH228427   3.865   0.374   1.764 -0.4457 -0.1703  0.1810
 3747TIP3    H128428   3.923   0.383   1.839  0.7730  1.5907 -0.8711
 3747TIP3    H228429   3.800   0.444   1.776  1.4523  2.1031 -1.7124
 3748TIP3   OH228430   3.493   2.914   5.611 -0.0787  0.4382  0.2799
 3748TIP3    H128431   3.405   2.879   5.628  0.6227 -0.6370  1.8954
 3748TIP3    H228432   3.479   2.980   5.543 -2.4106  1.5688  1.7309
 3749TIP3   OH228433   0.850   4.570   7.708  0.3382  0.0925  0.3619
 3749TIP3    H128434   0.792   4.564   7.785  1.1103 -2.0027  0.8455
 3749TIP3    H228435   0.821   4.499   7.651  0.5582  0.8879 -0.7702
 3750TIP3   OH228436   1.717   6.585   0.714 -0.6695  0.5453  0.2278
 3750TIP3    H128437   1.767   6.504   0.699 -2.2786 -0.3966 -0.3264
 3750TIP3    H228438   1.775   6.639   0.767  1.0683 -0.3369 -0.6634
 3751TIP3   OH228439   0.416   3.414   0.699  0.8859  0.1856 -0.1557
 3751TIP3    H128440   0.429   3.402   0.793 -0.7995 -0.1443  0.0637
 3751TIP3    H228441   0.335   3.464   0.693 -0.2110 -1.6379 -1.4661
 3752TIP3   OH228442   2.980   1.359   7.491  0.4836 -0.1574  0.6855
 3752TIP3    H128443   2.895   1.324   7.462  1.0392 -1.2759  0.3611
 3752TIP3    H228444   2.977   1.452   7.468 -0.4110 -0.3195  0.1093
 3753TIP3   OH228445   5.138   2.202   0.411  0.4426 -0.1579  0.2038
 3753TIP3    H128446   5.188   2.159   0.342  0.5729 -0.6124  0.5732
 3753TIP3    H228447   5.126   2.134   0.477  1.7772  0.7092  1.4020
 3754TIP3   OH228448   3.128   2.392   2.076  0.7738 -0.3157  0.3627
 3754TIP3    H128449   3.173   2.322   2.028  1.1705 -0.5025  0.9745
 3754TIP3    H228450   3.196   2.457   2.092  0.3552  0.3095 -0.3807
 3755TIP3   OH228451   1.587   5.811   6.972  0.0777 -0.0885 -0.1927
 3755TIP3    H128452   1.636   5.749   7.027 -0.9350 -0.2466  0.5748
 3755TIP3    H228453   1.636   5.814   6.890  1.1881 -0.4709  0.4267
 3756TIP3   OH228454   2.345   1.469   1.940 -0.0085  0.7505  0.0171
 3756TIP3    H128455   2.254   1.446   1.921  0.3796  1.2030 -2.8596
 3756TIP3    H228456   2.384   1.386   1.969 -0.8035 -0.0405 -1.0569
 3757TIP3   OH228457   4.711   0.456   0.512  0.2574  0.0152  0.3980
 3757TIP3    H128458   4.724   0.497   0.598  1.7076  0.9985 -0.2667
 3757TIP3    H228459   4.616   0.462   0.498 -0.2234 -1.3840  2.4853
 3758TIP3   OH228460   2.529   3.958   1.783  0.5999 -0.1325 -0.1892
 3758TIP3    H128461   2.435   3.945   1.768  0.5002  0.7175 -0.3892
 3758TIP3    H228462   2.534   4.012   1.862  0.9639 -0.9590  0.3627
 3759TIP3   OH228463   5.073   3.479   1.972 -0.0139  0.2235  0.2253
 3759TIP3    H128464   5.148   3.501   2.027 -0.7709 -1.8719  2.2462
 3759TIP3    H228465   5.008   3.546   1.993  0.0794  0.0531  1.0975
 3760TIP3   OH228466   2.744   4.444   7.621  0.0431 -0.7330  0.5108
 3760TIP3    H128467   2.676   4.476   7.680  0.5342  0.0116  0.6843
 3760TIP3    H228468   2.802   4.392   7.677  1.0736  0.8033  0.9209
 3761TIP3   OH228469   6.161   3.430   2.472  0.8108  0.2174  0.2687
 3761TIP3    H128470   6.207   3.422   2.389 -0.1333 -0.6601 -0.1918
 3761TIP3    H228471   6.154   3.525   2.486  1.0354  0.3778 -0.6238
 3762TIP3   OH228472   4.947   4.674   0.811  0.2553 -0.0277  0.7299
 3762TIP3    H128473   4.906   4.593   0.839 -2.6556  0.1431 -2.3587
 3762TIP3    H228474   4.906   4.742   0.864  0.2565 -0.3024  1.0823
 3763TIP3   OH228475   4.636   1.463   2.040  0.1528 -0.0130 -0.2216
 3763TIP3    H128476   4.571   1.465   2.110 -1.4966 -0.9511 -1.6524
 3763TIP3    H228477   4.594   1.414   1.969  0.5240  3.3808 -3.0545
 3764TIP3   OH228478   5.034   1.816   1.730  0.0323  0.8320 -0.1774
 3764TIP3    H128479   4.958   1.787   1.681 -0.1599  0.7533  0.1643
 3764TIP3    H228480   5.009   1.902   1.764 -0.9956 -0.3328  2.2618
 3765TIP3   OH228481   6.172   4.509   0.622 -0.1348  0.1397  0.4511
 3765TIP3    H128482   6.137   4.421   0.610  3.2852 -1.1139 -1.7958
 3765TIP3    H228483   6.118   4.565   0.567 -0.1313 -1.2723 -1.0472
 3766TIP3   OH228484   2.298   3.408   0.724  0.2497  0.2174  0.2113
 3766TIP3    H128485   2.382   3.366   0.744 -0.4784 -0.1750  2.8184
 3766TIP3    H228486   2.319   3.473   0.657  1.9996 -2.0985 -1.6756
 3767TIP3   OH228487   4.460   1.365   0.965  0.6007  0.3648 -0.8221
 3767TIP3    H128488   4.515   1.440   0.989  3.0469 -2.1968  2.6584
 3767TIP3    H228489   4.512   1.316   0.902  0.4170  0.0499 -0.7302
 3768TIP3   OH228490   3.727   1.541   7.275  0.0745  0.1788 -0.2953
 3768TIP3    H128491   3.738   1.482   7.201 -2.1987 -1.2413  0.4032
 3768TIP3    H228492   3.658   1.501   7.328  0.0186  2.3267  1.3955
 3769TIP3   OH228493   3.177   6.291   5.920 -0.5115  0.0255  0.5838
 3769TIP3    H128494   3.216   6.344   5.852  0.8015 -1.2706  0.2785
 3769TIP3    H228495   3.102   6.249   5.878 -0.3493  0.0783  0.2404
 3770TIP3   OH228496   4.098   1.871   6.745 -0.0563  0.0166  0.0074
 3770TIP3    H128497   4.092   1.775   6.740 -1.7813 -0.1167  2.7426
 3770TIP3    H228498   4.008   1.901   6.731  0.6428  1.3903 -1.9981
 3771TIP3   OH228499   2.906   6.131   1.241  0.2270 -0.3825  0.0057
 3771TIP3    H128500   2.984   6.074   1.238  0.4869  0.0141 -1.7584
 3771TIP3    H228501   2.941   6.220   1.238 -0.2750 -0.1889 -0.2213
 3772TIP3   OH228502   2.764   5.056   6.789  0.0247  0.4891 -0.4184
 3772TIP3    H128503   2.713   5.102   6.723  0.4310  0.9347 -0.4269
 3772TIP3    H228504   2.855   5.077   6.768  0.2288 -0.4926 -0.5550
 3773TIP3   OH228505   2.969   5.207   2.406 -0.2390  0.1834  0.3911
 3773TIP3    H128506   3.025   5.226   2.481  0.5920 -0.2337 -0.1096
 3773TIP3    H228507   2.929   5.291   2.385 -0.3720  0.3320  1.2131
 3774TIP3   OH228508   5.802   4.851   0.464  0.3051  0.0687 -0.2966
 3774TIP3    H128509   5.833   4.916   0.401 -0.7776  0.8591 -0.0481
 3774TIP3    H228510   5.707   4.847   0.450  0.2986 -1.2132 -0.0645
 3775TIP3   OH228511   0.353   1.194   6.127 -0.0339 -0.8658  0.0542
 3775TIP3    H128512   0.329   1.102   6.115 -0.4353 -0.7435 -0.1226
 3775TIP3    H228513   0.328   1.236   6.044  1.1303 -0.7897 -0.2661
 3776TIP3   OH228514   2.913   5.982   0.341  0.2979 -0.3017 -0.7421
 3776TIP3    H128515   2.858   5.909   0.369 -1.3827  0.7770 -1.0834
 3776TIP3    H228516   2.972   5.944   0.275 -0.7075 -1.2914 -1.0954
 3777TIP3   OH228517   4.752   2.961   0.751  0.2592  0.4229  0.6281
 3777TIP3    H128518   4.700   3.027   0.705 -0.8012 -0.1466  0.9680
 3777TIP3    H228519   4.753   2.885   0.693  2.5770  1.1179 -0.3486
 3778TIP3   OH228520   2.810   5.295   7.549  0.1025 -0.1424 -0.1687
 3778TIP3    H128521   2.740   5.341   7.504  0.7530  0.9051 -0.1458
 3778TIP3    H228522   2.790   5.202   7.536 -0.9652  0.1396 -0.6420
 3779TIP3   OH228523   3.296   2.923   0.006 -0.0094 -0.8638  0.5391
 3779TIP3    H128524   3.279   3.009  -0.031 -0.8797 -1.3273 -0.1729
 3779TIP3    H228525   3.305   2.938   0.100 -1.1376 -0.1311  0.5419
 3780TIP3   OH228526   0.609   1.403   7.443 -0.3423  0.4077  0.3786
 3780TIP3    H128527   0.663   1.462   7.495 -0.0925 -0.1500  0.7665
 3780TIP3    H228528   0.602   1.445   7.358 -0.5441  1.2089  0.7883
 3781TIP3   OH228529   2.633   5.338   7.348  0.1585 -0.5074  0.2571
 3781TIP3    H128530   2.589   5.273   7.293  0.4730 -2.4502  2.1504
 3781TIP3    H228531   2.564   5.370   7.407 -0.0103  0.9738 -0.7192
 3782TIP3   OH228532   5.532   3.967   2.602  0.3198 -0.1733 -0.4297
 3782TIP3    H128533   5.577   3.897   2.649 -0.5898  0.4077  1.4200
 3782TIP3    H228534   5.455   3.987   2.656 -0.3009  1.1758 -1.7252
 3783TIP3   OH228535   5.077   2.998   6.767  0.7199 -0.0838  0.7215
 3783TIP3    H128536   5.106   2.907   6.769 -0.1091 -0.3864 -0.2006
 3783TIP3    H228537   5.026   3.009   6.848  0.5580 -0.5357  0.6850
 3784TIP3   OH228538   3.722   2.701   7.103 -0.1602 -0.0673 -0.0279
 3784TIP3    H128539   3.724   2.743   7.189 -0.9619 -0.7077  0.3153
 3784TIP3    H228540   3.736   2.773   7.041 -0.3315  0.5191  0.6011
 3785TIP3   OH228541   1.133   6.138   7.413  0.6913  0.1701 -0.2699
 3785TIP3    H128542   1.142   6.097   7.327 -0.3810  1.1615 -0.8824
 3785TIP3    H228543   1.220   6.132   7.452  0.9758 -1.0954 -1.0515
 3786TIP3   OH228544   3.054   0.321   0.272 -0.3377 -0.5817  0.2733
 3786TIP3    H128545   3.144   0.288   0.265 -0.6919 -1.3533 -0.9905
 3786TIP3    H228546   3.064   0.416   0.276  0.5820 -0.7012  1.2639
 3787TIP3   OH228547   1.166   2.083   7.272  0.7576  0.0331 -0.2827
 3787TIP3    H128548   1.087   2.098   7.220 -0.0275 -0.5130  0.7041
 3787TIP3    H228549   1.221   2.028   7.217 -0.0902 -0.5919 -0.5233
 3788TIP3   OH228550   6.150   5.042   0.119 -0.1551 -0.1295 -0.2053
 3788TIP3    H128551   6.179   4.973   0.060  1.1325 -2.2537  2.6501
 3788TIP3    H228552   6.227   5.098   0.130  0.4920 -1.2354  1.3155
 3789TIP3   OH228553   6.107   6.394   6.435  0.2712  0.1674 -0.5205
 3789TIP3    H128554   6.015   6.372   6.445  0.1394  0.9934  0.1553
 3789TIP3    H228555   6.135   6.421   6.522  0.6815  1.6656 -1.0822
 3790TIP3   OH228556   0.426   2.816   1.650 -0.5662  0.0413  0.0867
 3790TIP3    H128557   0.369   2.758   1.600 -2.0844  0.8948  0.7541
 3790TIP3    H228558   0.472   2.868   1.583  0.7064 -1.7541 -0.5070
 3791TIP3   OH228559   3.467   3.117   0.825  0.1147 -0.0476  0.2637
 3791TIP3    H128560   3.496   3.027   0.813  1.3794  0.4981 -1.0906
 3791TIP3    H228561   3.378   3.119   0.788  0.1043 -0.7077  0.2437
 3792TIP3   OH228562   0.032   2.265   1.330 -0.2079 -0.3592 -0.0615
 3792TIP3    H128563   0.089   2.278   1.406 -0.8611 -1.9976  0.7696
 3792TIP3    H228564   0.082   2.298   1.256  1.2246 -0.4562  0.8276
 3793TIP3   OH228565   5.258   3.860   0.982  0.2343 -0.2932  0.0114
 3793TIP3    H128566   5.184   3.809   0.948  0.4315 -0.3785 -0.2988
 3793TIP3    H228567   5.226   3.899   1.063  0.2491 -1.3485  0.5364
 3794TIP3   OH228568   5.591   0.709   0.468 -0.5441 -0.3126  0.1798
 3794TIP3    H128569   5.632   0.782   0.514  1.3982 -1.0277 -0.3019
 3794TIP3    H228570   5.532   0.670   0.532  1.3704 -0.7130  1.8039
 3795TIP3   OH228571   0.965   3.178   5.827 -0.0997  0.1108  0.3440
 3795TIP3    H128572   1.037   3.207   5.882 -0.0265  1.1693 -0.2717
 3795TIP3    H228573   1.006   3.154   5.744 -0.4006  0.3243  0.1281
 3796TIP3   OH228574   4.833   6.069   0.179 -0.3487  0.0758 -0.7019
 3796TIP3    H128575   4.755   6.063   0.234 -0.4166  1.3253 -0.6243
 3796TIP3    H228576   4.818   6.147   0.126  1.3164  1.0070  0.1014
 3797TIP3   OH228577   3.970   5.556   5.630 -0.0272 -0.0128  0.1838
 3797TIP3    H128578   3.969   5.513   5.544 -1.8165 -0.7562  0.5268
 3797TIP3    H228579   3.988   5.648   5.611  1.4316 -0.4522 -0.7902
 3798TIP3   OH228580   6.093   0.590   0.344  0.2653 -0.6046 -0.2357
 3798TIP3    H128581   6.151   0.552   0.277  1.1722  0.6268 -0.1858
 3798TIP3    H228582   6.028   0.521   0.361 -0.9020 -0.4766 -3.4350
 3799TIP3   OH228583   3.524   5.923   0.260 -0.6329  0.2010  0.0479
 3799TIP3    H128584   3.443   5.914   0.310 -1.5776  2.7644 -0.8904
 3799TIP3    H228585   3.588   5.954   0.323 -0.6859 -0.6278  0.5234
 3800TIP3   OH228586   1.695   3.011   1.820  0.4281 -0.4156  0.3462
 3800TIP3    H128587   1.786   2.983   1.813 -0.0171 -2.2371  1.2735
 3800TIP3    H228588   1.672   2.997   1.911 -0.8522 -0.2097  0.0760
 3801TIP3   OH228589   5.820   3.813   7.628  0.2705 -0.1846 -0.7571
 3801TIP3    H128590   5.865   3.822   7.544 -2.0104 -0.9460 -2.1427
 3801TIP3    H228591   5.749   3.752   7.611 -1.0955  0.6751  1.4053
 3802TIP3   OH228592   6.288   0.036   1.286 -0.6764  0.6763  0.3519
 3802TIP3    H128593   6.293   0.055   1.379  0.1521  0.6492  0.3167
 3802TIP3    H228594   6.273   0.121   1.244  3.0092  1.4086  0.1917
 3803TIP3   OH228595   2.976   4.425   6.140 -0.1529 -0.3654 -0.3565
 3803TIP3    H128596   2.968   4.444   6.046  0.7090  1.5502 -0.0859
 3803TIP3    H228597   2.889   4.441   6.175 -0.5400 -1.3050 -0.8335
 3804TIP3   OH228598   0.294   4.328   7.452 -0.8740  0.0803 -0.3617
 3804TIP3    H128599   0.302   4.420   7.479 -0.9505 -0.2476  0.8086
 3804TIP3    H228600   0.325   4.278   7.527  1.1579 -0.8369 -1.7274
 3805TIP3   OH228601   5.275   1.920   5.589  0.1352 -0.1338 -0.0832
 3805TIP3    H128602   5.318   1.837   5.612  1.3651  0.7285  0.8884
 3805TIP3    H228603   5.347   1.984   5.586 -1.1539  1.7239  3.1863
 3806TIP3   OH228604   3.608   2.806   1.601 -0.5197 -0.0997 -0.1775
 3806TIP3    H128605   3.611   2.839   1.691  0.2468  1.4943 -0.7433
 3806TIP3    H228606   3.631   2.714   1.609  1.1987  0.3803  1.1275
 3807TIP3   OH228607   6.475   5.118   6.757 -0.1361 -0.5714  0.2146
 3807TIP3    H128608   6.391   5.136   6.800 -0.3112  1.5763 -0.8962
 3807TIP3    H228609   6.540   5.124   6.827 -0.5259  1.8412  0.4612
 3808TIP3   OH228610   0.990   2.422   6.030  0.2879 -0.3133  0.7758
 3808TIP3    H128611   0.902   2.452   6.008 -0.2699 -2.6488 -0.5339
 3808TIP3    H228612   0.976   2.352   6.094  0.8812 -2.5015 -1.3369
 3809TIP3   OH228613   4.667   2.828   7.563  0.6813  0.2396  0.1973
 3809TIP3    H128614   4.632   2.914   7.541  1.2537  0.7928  1.3799
 3809TIP3    H228615   4.667   2.826   7.658  0.0755 -1.3315  0.1863
 3810TIP3   OH228616   3.303   1.256   6.178  0.6982 -0.1382  0.2847
 3810TIP3    H128617   3.353   1.174   6.176 -0.8557 -1.1435  0.8017
 3810TIP3    H228618   3.241   1.248   6.105  0.7296  0.7062  0.1618
 3811TIP3   OH228619   4.799   5.869   0.939 -0.2244  0.5073  0.6683
 3811TIP3    H128620   4.750   5.878   1.021 -0.3894 -0.5250  0.7069
 3811TIP3    H228621   4.784   5.951   0.892 -2.9766 -0.1686  0.1660
 3812TIP3   OH228622   2.901   1.651   5.368  0.1815  0.5107 -0.4660
 3812TIP3    H128623   2.903   1.725   5.308 -1.7665  0.7485 -0.3033
 3812TIP3    H228624   2.916   1.575   5.312  0.3509  0.8810 -0.9295
 3813TIP3   OH228625   0.823   0.187   5.807 -0.3584 -0.0122  0.1657
 3813TIP3    H128626   0.801   0.096   5.789 -0.0711 -0.7048  2.8409
 3813TIP3    H228627   0.884   0.212   5.738 -0.3978 -1.8606 -0.5779
 3814TIP3   OH228628   6.533   4.768   7.719 -0.0424 -0.2164 -0.9970
 3814TIP3    H128629   6.481   4.842   7.687 -0.6898 -0.5547 -0.7576
 3814TIP3    H228630   6.503   4.693   7.667 -0.6540 -0.6471 -0.0593
 3815TIP3   OH228631   3.698   2.427   7.580 -0.0501  0.5264  0.0789
 3815TIP3    H128632   3.761   2.377   7.528  0.2860  0.2003  0.7881
 3815TIP3    H228633   3.716   2.402   7.670 -0.5792  1.1429  0.3627
 3816TIP3   OH228634   0.645   0.139   0.762 -0.5036  0.6406 -0.0495
 3816TIP3    H128635   0.616   0.143   0.853  0.6068  0.5507  0.3208
 3816TIP3    H228636   0.721   0.081   0.763 -2.4122 -2.1259 -1.5881
 3817TIP3   OH228637   3.047   2.842   0.406  0.4059 -0.0496 -0.0911
 3817TIP3    H128638   3.095   2.864   0.486  1.6149 -0.4587 -0.6725
 3817TIP3    H228639   2.997   2.921   0.386  0.2564  0.1340  0.9398
 3818TIP3   OH228640   2.410   5.479   0.794  0.1896 -0.1497 -0.4350
 3818TIP3    H128641   2.400   5.384   0.792 -0.5207 -0.1222  0.6298
 3818TIP3    H228642   2.321   5.513   0.793  0.1160  0.3071  3.4347
 3819TIP3   OH228643   3.100   6.478   0.239  0.2843 -0.2925 -1.2300
 3819TIP3    H128644   3.013   6.462   0.202  0.1662  0.9779 -1.5597
 3819TIP3    H228645   3.147   6.396   0.227 -0.0566 -0.2327 -3.3798
 3820TIP3   OH228646   2.793   1.872   0.417  0.8024  0.4718 -0.0586
 3820TIP3    H128647   2.872   1.876   0.470 -0.9997 -1.0245  3.0412
 3820TIP3    H228648   2.795   1.785   0.376 -0.1448 -0.5211  1.8340
 3821TIP3   OH228649   5.393   0.273   7.052  0.0180  0.1650  0.1343
 3821TIP3    H128650   5.446   0.197   7.076  1.5072  0.4746 -1.8471
 3821TIP3    H228651   5.386   0.324   7.132  0.5909 -1.1448  1.0448
 3822TIP3   OH228652   5.753   2.670   7.060 -0.2539  0.0719 -0.0372
 3822TIP3    H128653   5.811   2.600   7.091  0.7056  1.7887  2.3411
 3822TIP3    H228654   5.665   2.637   7.074  0.1764 -0.3089  2.1370
 3823TIP3   OH228655   5.764   0.185   6.984 -0.3250 -0.1552  0.3688
 3823TIP3    H128656   5.716   0.236   6.918  0.2280 -0.6800 -0.4625
 3823TIP3    H228657   5.703   0.177   7.057 -1.2047 -0.0998 -0.3311
 3824TIP3   OH228658   1.584   0.846   7.067  0.1698 -0.1501  0.5246
 3824TIP3    H128659   1.556   0.893   6.989  2.1680  1.2719  0.5785
 3824TIP3    H228660   1.676   0.825   7.051  0.3532 -0.7283  2.0884
 3825TIP3   OH228661   2.137   2.401   5.970 -0.7064  0.2689 -0.3561
 3825TIP3    H128662   2.201   2.470   5.989  0.6822 -1.7057  3.4578
 3825TIP3    H228663   2.188   2.333   5.925 -0.9544  0.0307 -0.2795
 3826TIP3   OH228664   0.428   6.392   2.408  0.0121 -0.5344  0.0817
 3826TIP3    H128665   0.437   6.306   2.448  1.7485 -0.6270 -0.4101
 3826TIP3    H228666   0.374   6.378   2.330 -0.8471 -0.9072  0.7323
 3827TIP3   OH228667   3.559   0.408   1.964  0.1380 -0.7120 -0.0850
 3827TIP3    H128668   3.636   0.458   1.939 -0.5968  1.4211  1.6336
 3827TIP3    H228669   3.486   0.468   1.950 -1.3116 -2.7069 -1.7537
 3828TIP3   OH228670   5.063   1.037   5.829 -0.7260  0.3058 -0.4433
 3828TIP3    H128671   5.157   1.021   5.825 -1.1256 -2.2598 -1.0126
 3828TIP3    H228672   5.045   1.092   5.752  0.1647  0.0188 -0.8686
 3829TIP3   OH228673   0.918   0.155   7.349  0.1252  0.4161 -0.5759
 3829TIP3    H128674   0.882   0.224   7.293  1.3129  1.2180 -0.3864
 3829TIP3    H228675   1.009   0.181   7.363  0.7283 -1.4198 -0.8436
 3830TIP3   OH228676   5.177   4.824   0.721  0.5250  0.1898 -0.3894
 3830TIP3    H128677   5.219   4.738   0.722 -0.2563 -0.1954  0.4398
 3830TIP3    H228678   5.086   4.806   0.743  0.3617  1.2346 -0.1795
 3831TIP3   OH228679   6.322   1.675   5.599 -0.2027 -0.5642 -1.0346
 3831TIP3    H128680   6.414   1.691   5.619  0.6592 -1.0090 -4.0388
 3831TIP3    H228681   6.309   1.582   5.617 -1.3115  0.1862  3.1208
 3832TIP3   OH228682   1.099   4.499   1.017  0.2028 -0.0182  0.5036
 3832TIP3    H128683   1.098   4.516   0.922  0.7720 -0.9062  0.3242
 3832TIP3    H228684   1.145   4.574   1.053  1.4449 -0.4418 -0.1231
 3833TIP3   OH228685   1.335   1.275   2.732 -0.9859 -0.0377  0.4308
 3833TIP3    H128686   1.255   1.242   2.775  0.1101 -0.7556  2.0187
 3833TIP3    H228687   1.304   1.345   2.674 -2.7405 -0.1391  1.1787
 3834TIP3   OH228688   4.596   1.721   6.222  0.0183 -0.5275  0.4222
 3834TIP3    H128689   4.540   1.644   6.214  0.3922 -0.7094 -0.5694
 3834TIP3    H228690   4.542   1.786   6.266 -0.9211 -0.7532 -0.3714
 3835TIP3   OH228691   0.284   1.688   0.821  0.2628 -0.1355 -0.4777
 3835TIP3    H128692   0.318   1.657   0.737  0.6136  0.6498 -0.6412
 3835TIP3    H228693   0.196   1.720   0.802  0.5457  0.5499 -0.6711
 3836TIP3   OH228694   4.487   6.567   6.881 -0.2137  0.0058  0.0404
 3836TIP3    H128695   4.511   6.484   6.922  0.2829  0.1344  0.0280
 3836TIP3    H228696   4.572   6.610   6.864 -0.4652  0.5597  0.1488
 3837TIP3   OH228697   2.030   5.170   1.979 -0.3760 -0.3249 -0.1651
 3837TIP3    H128698   1.934   5.176   1.988 -0.5506 -0.2819 -1.8281
 3837TIP3    H228699   2.051   5.085   2.019 -0.8982  0.2620  1.4769
 3838TIP3   OH228700   0.983   5.388   0.944  0.2132  0.0004 -0.1386
 3838TIP3    H128701   1.036   5.467   0.937  1.9150 -1.0327  0.3823
 3838TIP3    H228702   0.965   5.362   0.854 -0.0420  0.7432 -0.3140
 3839TIP3   OH228703   5.619   3.028   0.160 -0.5744  0.0524 -0.4024
 3839TIP3    H128704   5.621   2.935   0.180 -0.3479  0.4224  1.5616
 3839TIP3    H228705   5.585   3.034   0.071 -2.5292 -1.8125  0.1396
 3840TIP3   OH228706   0.828   5.602   2.044 -0.2224  0.2280  0.0765
 3840TIP3    H128707   0.890   5.633   2.110  0.2703 -0.0168 -0.2636
 3840TIP3    H228708   0.845   5.508   2.037  1.5122  0.5986 -2.1729
 3841TIP3   OH228709   4.412   2.413   1.706  0.0232  0.2920 -0.1252
 3841TIP3    H128710   4.334   2.357   1.712  1.3103 -1.6828 -0.7385
 3841TIP3    H228711   4.432   2.435   1.797  0.1282 -1.2691  0.2665
 3842TIP3   OH228712   4.476   2.106   1.254  0.4311 -0.5362  0.6514
 3842TIP3    H128713   4.435   2.130   1.337 -0.8298  0.7597 -0.2943
 3842TIP3    H228714   4.553   2.162   1.248  0.4954 -0.5962  0.9285
 3843TIP3   OH228715   2.874   4.077   7.609  0.0017  0.1766  0.5833
 3843TIP3    H128716   2.893   4.029   7.529 -0.3349 -0.6377  0.9788
 3843TIP3    H228717   2.959   4.109   7.639  0.3014 -0.6031  0.5801
 3844TIP3   OH228718   0.885   1.206   0.761 -0.6049  0.6542 -0.0614
 3844TIP3    H128719   0.934   1.167   0.833  1.1858  0.4849 -1.3032
 3844TIP3    H228720   0.819   1.260   0.803 -0.3333 -0.3081  1.6924
 3845TIP3   OH228721   2.026   3.186   1.295  0.3360  0.1261 -0.2714
 3845TIP3    H128722   2.028   3.119   1.227 -0.9128 -0.1161 -0.1006
 3845TIP3    H228723   2.109   3.232   1.286  1.5837 -1.9297  0.0962
 3846TIP3   OH228724   5.682   5.385   6.992 -0.0784  0.3430 -0.2111
 3846TIP3    H128725   5.643   5.386   7.079 -0.8283  0.7642 -0.5442
 3846TIP3    H228726   5.751   5.319   6.998 -1.2252 -0.8640  0.2331
 3847TIP3   OH228727   5.344   0.389   5.456 -0.6016  0.0640  0.7012
 3847TIP3    H128728   5.357   0.331   5.381  2.8065  1.1632  0.2901
 3847TIP3    H228729   5.372   0.338   5.532  1.7766  0.8159  0.4132
 3848TIP3   OH228730   5.452   4.305   2.511 -0.1417 -0.3068 -0.6585
 3848TIP3    H128731   5.388   4.290   2.441  2.4748 -1.3262 -2.9894
 3848TIP3    H228732   5.505   4.225   2.512  1.8224  0.9470  0.3670
 3849TIP3   OH228733   5.170   1.140   0.482 -0.1234 -0.2033  0.6259
 3849TIP3    H128734   5.110   1.087   0.430 -0.2297 -1.2694  1.7942
 3849TIP3    H228735   5.114   1.198   0.533 -0.0967 -0.2849  0.7485
 3850TIP3   OH228736   6.603   3.418   6.105 -0.4365 -0.2303  0.0902
 3850TIP3    H128737   6.529   3.477   6.121 -0.7371 -0.9748  1.6398
 3850TIP3    H228738   6.574   3.364   6.031 -0.6084  0.7879 -0.6120
 3851TIP3   OH228739   1.104   0.281   6.408  0.5837 -0.4344 -0.2461
 3851TIP3    H128740   1.159   0.355   6.432  0.1318 -0.4292  0.8393
 3851TIP3    H228741   1.164   0.206   6.405  0.3949 -0.8979  3.2418
 3852TIP3   OH228742   2.506   5.593   1.325 -0.0630  0.0947  0.3498
 3852TIP3    H128743   2.467   5.658   1.266  1.7070  0.8383 -0.0716
 3852TIP3    H228744   2.517   5.640   1.408  0.1464 -0.0338  0.3948
 3853TIP3   OH228745   3.574   1.403   0.636 -0.1577  0.5315  0.2765
 3853TIP3    H128746   3.620   1.384   0.554 -0.9611  0.2963 -0.1350
 3853TIP3    H228747   3.557   1.497   0.632 -3.8985 -0.0140 -1.9066
 3854TIP3   OH228748   3.082   1.447   0.765  0.1066  0.2222  0.2920
 3854TIP3    H128749   3.114   1.360   0.744 -0.1100 -0.2827  1.9116
 3854TIP3    H228750   3.156   1.490   0.808 -0.0646  0.5229  0.2899
 3855TIP3   OH228751   1.251   4.109   7.665  0.9240  0.0108 -0.0651
 3855TIP3    H128752   1.279   4.093   7.575  1.1041  0.4580 -0.0909
 3855TIP3    H228753   1.225   4.023   7.698 -0.1873  0.0129 -0.8918
 3856TIP3   OH228754   4.369   3.946   7.553 -0.5645  0.4104  0.1025
 3856TIP3    H128755   4.342   4.009   7.486 -0.7611  1.1229  0.8428
 3856TIP3    H228756   4.293   3.937   7.609  0.0259  0.8231  0.9881
 3857TIP3   OH228757   0.184   0.754   2.076 -0.3956  0.4282 -0.7867
 3857TIP3    H128758   0.182   0.666   2.038  0.8380  0.4520 -0.9519
 3857TIP3    H228759   0.155   0.812   2.005  0.7797  0.3472 -1.3697
 3858TIP3   OH228760   3.294   6.214   0.524 -0.5603 -0.2084  0.4818
 3858TIP3    H128761   3.272   6.132   0.480 -0.7835 -0.7895  1.6442
 3858TIP3    H228762   3.209   6.258   0.536 -0.5045 -0.0696  0.3711
 3859TIP3   OH228763   1.416   4.954   7.473  0.3475  0.2784  0.1573
 3859TIP3    H128764   1.447   4.877   7.425  2.6902  0.9421  0.5246
 3859TIP3    H228765   1.449   4.942   7.562  1.7588  2.2203 -0.0506
 3860TIP3   OH228766   0.964   3.182   2.305 -0.0881 -0.0408  0.8271
 3860TIP3    H128767   1.046   3.228   2.322  0.6299 -0.9487 -0.0664
 3860TIP3    H228768   0.978   3.094   2.340 -0.7275 -0.1658  0.7873
 3861TIP3   OH228769   0.468   1.007   1.175  0.5910 -0.4382 -0.0284
 3861TIP3    H128770   0.535   1.059   1.131  1.5641 -1.2254  0.5030
 3861TIP3    H228771   0.441   0.943   1.109  1.2975 -0.9450  0.1651
 3862TIP3   OH228772   5.694   2.299   0.752  0.0762 -0.0065  0.2607
 3862TIP3    H128773   5.757   2.329   0.818 -0.1615  1.2176 -0.0581
 3862TIP3    H228774   5.705   2.204   0.751  0.3839 -0.0196  1.7692
 3863TIP3   OH228775   3.730   1.860   1.084  0.1729  0.4419 -0.0318
 3863TIP3    H128776   3.713   1.795   1.152 -0.3818  0.8416  0.2264
 3863TIP3    H228777   3.818   1.893   1.102  1.1727 -1.4429 -1.1874
 3864TIP3   OH228778   5.219   3.282   0.629 -0.1392  0.2636  0.2989
 3864TIP3    H128779   5.245   3.368   0.596 -0.3490 -1.2568 -4.5383
 3864TIP3    H228780   5.290   3.223   0.601 -1.4444 -1.6225  0.7437
 3865TIP3   OH228781   1.122   2.766   0.745 -0.3649  0.1691  0.1132
 3865TIP3    H128782   1.124   2.846   0.797 -0.8876 -1.0468  2.1020
 3865TIP3    H228783   1.053   2.713   0.784 -0.0099 -1.2791 -1.1152
 3866TIP3   OH228784   0.471   2.817   2.121  0.3463  0.1169 -0.1462
 3866TIP3    H128785   0.512   2.759   2.057  1.5632 -0.3498  1.0000
 3866TIP3    H228786   0.451   2.761   2.196 -1.7928  0.4865 -0.3787
 3867TIP3   OH228787   3.226   3.151   7.625 -0.6065 -0.0773 -0.3835
 3867TIP3    H128788   3.206   3.207   7.701 -2.3384 -0.5199 -0.4641
 3867TIP3    H228789   3.184   3.196   7.551  0.4392 -0.0319 -0.9575
 3868TIP3   OH228790   5.855   6.065   6.889  0.0246  0.2109 -0.0583
 3868TIP3    H128791   5.806   6.005   6.833  0.1025  0.8846 -0.8738
 3868TIP3    H228792   5.828   6.042   6.978 -1.9692  0.7096 -0.4832
 3869TIP3   OH228793   4.960   3.905   0.930  0.4653  0.0890  0.0346
 3869TIP3    H128794   4.967   3.975   0.994  0.0635 -2.1085  2.6624
 3869TIP3    H228795   4.903   3.841   0.972 -1.0676 -0.8522 -3.1882
 3870TIP3   OH228796   4.668   0.278   6.658  0.2463 -0.7400 -0.0227
 3870TIP3    H128797   4.694   0.294   6.567 -0.2281 -2.6350 -0.5362
 3870TIP3    H228798   4.573   0.287   6.658  0.1320 -1.7988  0.0149
 3871TIP3   OH228799   2.323   2.984   1.936  0.2301  0.3571 -0.1034
 3871TIP3    H128800   2.264   2.958   1.864 -0.9479  1.9171  0.2555
 3871TIP3    H228801   2.394   2.920   1.932 -1.7204 -1.9551 -0.2289
 3872TIP3   OH228802   0.397   0.415   6.443 -0.3027  0.3080  0.9167
 3872TIP3    H128803   0.309   0.450   6.455 -0.2853 -0.0174  2.1643
 3872TIP3    H228804   0.386   0.341   6.384 -0.3803  2.1556 -1.5238
 3873TIP3   OH228805   4.893   6.639   0.205  0.2917  0.3483 -0.1267
 3873TIP3    H128806   4.850   6.634   0.120  0.4520  1.1884 -0.2665
 3873TIP3    H228807   4.856   6.566   0.255 -0.5464  0.4489 -0.5764
 3874TIP3   OH228808   3.129   1.808   5.457  0.4439  0.4324 -0.3708
 3874TIP3    H128809   3.170   1.832   5.374  1.0424 -0.7859 -0.4466
 3874TIP3    H228810   3.044   1.771   5.432 -0.7688  2.8447 -0.2211
 3875TIP3   OH228811   0.829   0.935   1.561 -0.2254 -0.4326  0.2840
 3875TIP3    H128812   0.764   1.003   1.545 -0.3557 -0.5857  0.1632
 3875TIP3    H228813   0.782   0.852   1.546  0.2426 -0.5264 -0.7317
 3876TIP3   OH228814   0.893   2.747   0.906 -0.1699 -0.1081 -0.0200
 3876TIP3    H128815   0.846   2.666   0.929 -2.4716  0.4297 -2.3689
 3876TIP3    H228816   0.893   2.798   0.986  2.5492 -2.8468  1.9552
 3877TIP3   OH228817   6.581   4.958   6.086  0.4884 -0.2319 -0.7005
 3877TIP3    H128818   6.557   4.868   6.066  1.9829 -0.8514  0.1536
 3877TIP3    H228819   6.540   4.976   6.170 -1.6069  0.6617 -1.8503
 3878TIP3   OH228820   3.464   3.084   5.411 -0.5637 -0.4076  0.3943
 3878TIP3    H128821   3.379   3.066   5.369 -0.3961 -0.1179 -0.0764
 3878TIP3    H228822   3.514   3.132   5.345  0.4325 -1.6464  0.2117
 3879TIP3   OH228823   6.431   4.838   0.565  0.0798  0.1330  0.0643
 3879TIP3    H128824   6.400   4.925   0.539 -0.7442  0.2135  1.2305
 3879TIP3    H228825   6.471   4.802   0.486 -0.3786  1.2165 -0.6833
 3880TIP3   OH228826   4.031   1.665   0.858  0.1496  0.3211 -0.0287
 3880TIP3    H128827   4.102   1.601   0.868  0.1353  0.4902  1.4144
 3880TIP3    H228828   3.956   1.625   0.901 -0.5580  0.2751 -1.2851
 3881TIP3   OH228829   3.239   1.898   5.228  0.5838  0.5659 -0.2777
 3881TIP3    H128830   3.326   1.869   5.255 -0.2748  0.9978  3.5359
 3881TIP3    H228831   3.250   1.988   5.199  1.3055  1.0415  1.3736
 3882TIP3   OH228832   1.085   6.485   0.291 -0.1823  0.4757  0.1375
 3882TIP3    H128833   1.039   6.431   0.227 -1.4693  0.7733  0.7697
 3882TIP3    H228834   1.151   6.427   0.328 -0.7299 -0.2992 -0.0671
 3883TIP3   OH228835   0.742   4.789   0.390 -0.6592 -0.4211  0.1106
 3883TIP3    H128836   0.741   4.697   0.418 -0.6152 -0.3648  0.2985
 3883TIP3    H228837   0.661   4.800   0.342 -1.7417  0.0076  1.9252
 3884TIP3   OH228838   1.055   2.118   1.945  0.4070 -1.1032 -0.1412
 3884TIP3    H128839   1.114   2.149   1.877 -0.2340  0.9048  0.1273
 3884TIP3    H228840   1.011   2.198   1.976  0.4878 -1.9744  2.4411
 3885TIP3   OH228841   5.863   1.085   6.364  0.8531 -0.0924 -0.1124
 3885TIP3    H128842   5.907   1.169   6.352  0.0836  0.2603 -0.6246
 3885TIP3    H228843   5.871   1.041   6.280  0.8892 -0.3500  0.0246
 3886TIP3   OH228844   0.871   5.583   7.542 -0.1976  0.8962 -0.2111
 3886TIP3    H128845   0.961   5.552   7.527 -0.0953  0.9507  0.2820
 3886TIP3    H228846   0.844   5.542   7.623  0.2424  2.7142  0.9212
 3887TIP3   OH228847   1.278   3.601   2.201  0.1547  0.1925  0.4633
 3887TIP3    H128848   1.334   3.641   2.267  1.9497 -0.8537 -0.3537
 3887TIP3    H228849   1.292   3.507   2.211 -2.0946 -0.1733  0.7342
 3888TIP3   OH228850   0.446   1.632   1.051  0.1996  0.6649  0.0031
 3888TIP3    H128851   0.513   1.574   1.016  3.5124  3.4741  1.1243
 3888TIP3    H228852   0.401   1.666   0.974  2.6661  1.4996 -1.1515
 3889TIP3   OH228853   1.011   0.056   1.483  0.4280 -0.0976 -0.4316
 3889TIP3    H128854   1.039   0.058   1.575  4.1046  1.3364 -1.3947
 3889TIP3    H228855   0.985  -0.034   1.468  3.0904 -1.2654  1.2317
 3890TIP3   OH228856   4.467   1.553   6.626 -0.1931 -0.0878  0.1508
 3890TIP3    H128857   4.513   1.619   6.679  0.8367  0.1450 -1.0018
 3890TIP3    H228858   4.377   1.558   6.656  0.4264 -0.2799  2.2087
 3891TIP3   OH228859   5.620   2.078   7.097 -0.3014  0.5220 -0.7266
 3891TIP3    H128860   5.558   2.151   7.090 -2.0386 -0.7745  0.2652
 3891TIP3    H228861   5.654   2.066   7.008 -1.1610  1.5453 -1.2089
 3892TIP3   OH228862   5.647   4.187   0.868  0.0951  0.0827 -0.4369
 3892TIP3    H128863   5.567   4.137   0.886 -0.0038  0.8587  1.4954
 3892TIP3    H228864   5.664   4.172   0.775  0.4854 -4.0897  0.1214
 3893TIP3   OH228865   3.325   1.890   0.158 -0.6650 -0.2554  0.0177
 3893TIP3    H128866   3.416   1.916   0.173 -0.4357 -1.4285  0.8426
 3893TIP3    H228867   3.303   1.834   0.234 -1.9724 -0.2339 -0.3153
 3894TIP3   OH228868   2.479   1.769   7.379  0.5536 -0.6735  0.0949
 3894TIP3    H128869   2.451   1.783   7.470 -2.4324  1.6641 -1.0182
 3894TIP3    H228870   2.569   1.802   7.377 -0.4558  2.6455  1.5771
 3895TIP3   OH228871   4.181   0.793   0.006  0.2560  0.1565  0.0174
 3895TIP3    H128872   4.122   0.805   0.079 -0.2062  2.1930 -0.6321
 3895TIP3    H228873   4.266   0.822   0.038  0.0398  1.1132 -0.2523
 3896TIP3   OH228874   0.776   4.518   0.583 -0.0199  0.4174  0.0990
 3896TIP3    H128875   0.726   4.437   0.578  0.3450  0.0305  2.1282
 3896TIP3    H228876   0.711   4.586   0.599 -0.0220  0.0229  1.9288
 3897TIP3   OH228877   2.619   2.141   6.816  0.3690 -0.5040  0.0040
 3897TIP3    H128878   2.584   2.052   6.807  1.9929 -1.1178 -0.7859
 3897TIP3    H228879   2.678   2.135   6.891 -0.0456  0.1033  0.3809
 3898TIP3   OH228880   3.598   1.532   0.927  0.4298  0.2196 -0.3224
 3898TIP3    H128881   3.610   1.470   0.855  2.3968 -2.4012  2.0462
 3898TIP3    H228882   3.685   1.541   0.966 -0.5902  1.3903  1.8497
 3899TIP3   OH228883   3.669   6.488   7.309 -0.0982 -0.2259 -0.1191
 3899TIP3    H128884   3.739   6.473   7.244  0.5841  0.8648  0.3418
 3899TIP3    H228885   3.623   6.404   7.314  0.9126 -0.8398 -0.7529
 3900TIP3   OH228886   5.397   6.578   0.913  0.0979 -0.5907 -0.3950
 3900TIP3    H128887   5.481   6.535   0.902 -0.3273 -1.6005  0.1562
 3900TIP3    H228888   5.337   6.530   0.855 -0.0415  0.2913 -0.9902
 3901TIP3   OH228889   2.286   3.573   1.822 -0.1952  0.7383  0.0670
 3901TIP3    H128890   2.198   3.561   1.859  0.1418  1.0474  1.0093
 3901TIP3    H228891   2.341   3.510   1.869 -0.1773 -0.5682 -1.6242
 3902TIP3   OH228892   0.722   6.119   2.166 -0.1605 -0.6227  0.3441
 3902TIP3    H128893   0.746   6.110   2.074  0.4083  0.2179  0.3991
 3902TIP3    H228894   0.683   6.035   2.189  0.1744 -1.0242 -0.5186
 3903TIP3   OH228895   5.739   3.170   1.868  0.2049  0.8220  0.3258
 3903TIP3    H128896   5.776   3.190   1.954 -0.2427  0.7880  0.5291
 3903TIP3    H228897   5.797   3.103   1.833  1.6875  2.3846 -0.3415
 3904TIP3   OH228898   4.989   0.425   6.321  0.0044 -0.2877 -0.0790
 3904TIP3    H128899   5.011   0.389   6.236 -0.3426 -0.3880 -0.1293
 3904TIP3    H228900   4.948   0.352   6.368 -1.7137  0.3058 -0.5678
 3905TIP3   OH228901   1.984   4.046   1.477  0.0455 -0.1291 -0.4201
 3905TIP3    H128902   2.020   4.069   1.391 -0.7919  2.0223 -0.2460
 3905TIP3    H228903   2.059   4.047   1.536  0.1403  1.8369 -0.5194
 3906TIP3   OH228904   3.730   0.324   6.707  0.3369 -0.5667  0.0787
 3906TIP3    H128905   3.663   0.315   6.776  0.3186 -0.7103  0.0424
 3906TIP3    H228906   3.734   0.418   6.690  0.9491 -0.4390  0.8787
 3907TIP3   OH228907   4.144   2.377   0.063 -0.3430  0.4776  0.0277
 3907TIP3    H128908   4.123   2.467   0.039 -0.0610  0.0973 -1.7509
 3907TIP3    H228909   4.087   2.359   0.138 -0.6347  2.0179  0.2172
 3908TIP3   OH228910   0.255   3.464   1.466  0.0371  0.0017 -0.1333
 3908TIP3    H128911   0.339   3.462   1.511 -0.5319  0.9033  1.0273
 3908TIP3    H228912   0.199   3.516   1.523 -1.8188 -1.9850 -0.0275
 3909TIP3   OH228913   1.705   4.606   6.991 -0.2322 -0.6844  0.6499
 3909TIP3    H128914   1.747   4.526   6.960 -0.5839 -0.5418 -0.2469
 3909TIP3    H228915   1.766   4.643   7.054 -0.1569 -1.7576  1.2196
 3910TIP3   OH228916   4.708   5.954   7.244 -0.2716  0.0539  0.3807
 3910TIP3    H128917   4.691   5.871   7.200  1.1072 -0.0590  0.0324
 3910TIP3    H228918   4.672   6.020   7.185  2.0001 -0.0519 -1.2652
 3911TIP3   OH228919   0.669   0.069   0.318  0.0180  0.6151 -0.1782
 3911TIP3    H128920   0.662  -0.020   0.282  0.1412  0.2477  0.6643
 3911TIP3    H228921   0.755   0.071   0.360  1.0110  1.8981 -2.1271
 3912TIP3   OH228922   4.512   2.278   5.630  0.5242 -0.6139  0.0081
 3912TIP3    H128923   4.538   2.242   5.715 -0.9099 -1.9595 -0.0752
 3912TIP3    H228924   4.466   2.359   5.651 -0.8779 -1.5478  0.6336
 3913TIP3   OH228925   1.598   1.485   6.549  0.2174  0.0846 -0.1590
 3913TIP3    H128926   1.525   1.427   6.572  0.8995 -1.1252 -0.9163
 3913TIP3    H228927   1.668   1.461   6.609  0.5877 -0.0609 -0.6444
 3914TIP3   OH228928   1.112   2.045   5.639  0.1334  0.5725  0.2211
 3914TIP3    H128929   1.204   2.072   5.643 -0.1355  1.3205  1.6261
 3914TIP3    H228930   1.063   2.125   5.625 -0.3894  0.3383  0.6487
 3915TIP3   OH228931   3.303   3.364   0.066  0.0275 -0.1148 -0.1433
 3915TIP3    H128932   3.214   3.379   0.036 -1.1018 -0.7739  2.5404
 3915TIP3    H228933   3.330   3.447   0.105  0.8260  0.2313 -1.3676
 3916TIP3   OH228934   5.721   1.540   1.077 -0.2289  0.0102 -0.1709
 3916TIP3    H128935   5.730   1.593   1.156  1.3421 -0.4411 -0.0035
 3916TIP3    H228936   5.628   1.519   1.072 -0.3603  0.0285  1.5893
 3917TIP3   OH228937   0.168   4.302   1.330 -0.4690  0.5165 -0.1190
 3917TIP3    H128938   0.139   4.222   1.284  1.1258  0.1006 -0.4484
 3917TIP3    H228939   0.154   4.372   1.267  1.5004 -0.0222 -1.2376
 3918TIP3   OH228940   3.923   5.269   7.118  0.0687  0.4044 -0.4071
 3918TIP3    H128941   3.947   5.193   7.065  1.6044 -0.1997  1.0796
 3918TIP3    H228942   3.837   5.248   7.153  0.5582 -0.7530  0.1354
 3919TIP3   OH228943   2.080   3.901   6.883  0.1798  0.6011 -0.1651
 3919TIP3    H128944   2.051   3.987   6.851  0.6996  0.0587 -2.3006
 3919TIP3    H228945   2.156   3.880   6.828 -0.0796 -1.3230  0.1409
 3920TIP3   OH228946   1.937   4.655   7.671 -0.3499 -0.5944  0.8070
 3920TIP3    H128947   2.031   4.649   7.651 -0.4261 -0.4644  0.4171
 3920TIP3    H228948   1.901   4.713   7.604 -1.3804 -3.5329 -1.4053
 3921TIP3   OH228949   6.520   0.020   6.921 -0.1661  0.2907 -0.4397
 3921TIP3    H128950   6.552   0.096   6.968 -0.4937  0.7369 -0.9319
 3921TIP3    H228951   6.473   0.056   6.846  0.0218 -0.4000 -0.8970
 3922TIP3   OH228952   3.714   3.533   0.508 -0.1199  0.2560 -0.0570
 3922TIP3    H128953   3.809   3.540   0.499 -0.1188 -0.2375 -0.4864
 3922TIP3    H228954   3.700   3.515   0.600  0.2778 -0.7449 -0.1826
 3923TIP3   OH228955   2.056   1.987   3.000  0.3610  0.0499 -0.2134
 3923TIP3    H128956   2.139   1.962   2.958 -0.2425 -1.7485 -0.4284
 3923TIP3    H228957   1.990   1.934   2.955 -0.4605 -1.1282  2.1965
 3924TIP3   OH228958   3.906   4.673   0.366  0.6796  0.4646  0.3057
 3924TIP3    H128959   3.950   4.596   0.331 -0.6422 -1.0727  1.8386
 3924TIP3    H228960   3.958   4.698   0.442 -0.7161 -1.1091  1.8777
 3925TIP3   OH228961   0.023   6.156   6.782 -0.1670  0.4675 -0.1549
 3925TIP3    H128962   0.016   6.228   6.844 -0.2267  0.4628 -0.1553
 3925TIP3    H228963   0.092   6.100   6.816  0.0494  0.6536 -0.2877
 3926TIP3   OH228964   4.908   3.086   7.572  0.2287  0.1585 -0.2932
 3926TIP3    H128965   4.953   3.095   7.656  0.0022 -2.0986  0.1219
 3926TIP3    H228966   4.978   3.091   7.507  0.5561  0.6419  0.0830
 3927TIP3   OH228967   5.039   0.822   0.864 -0.1491 -0.4894 -0.6854
 3927TIP3    H128968   5.033   0.902   0.916  0.7767 -0.2881 -0.8835
 3927TIP3    H228969   5.131   0.815   0.840 -0.3414 -1.2557 -1.2415
 3928TIP3   OH228970   0.058   3.781   1.818  0.3487 -0.2431  0.3164
 3928TIP3    H128971   0.083   3.736   1.737  0.6804  1.5597 -0.6641
 3928TIP3    H228972  -0.012   3.728   1.855  0.8076 -1.5999 -0.6803
 3929TIP3   OH228973   2.881   1.577   1.918 -0.2065 -0.5606  0.1757
 3929TIP3    H128974   2.903   1.497   1.871 -1.4265 -0.3778 -0.7469
 3929TIP3    H228975   2.836   1.631   1.854  1.3466  1.2531  0.5390
 3930TIP3   OH228976   3.908   3.161   6.372 -0.0264 -0.8287  0.0283
 3930TIP3    H128977   3.862   3.244   6.364 -0.1672 -0.8002  1.0251
 3930TIP3    H228978   3.911   3.126   6.283 -1.5182 -0.5919 -0.1414
 3931TIP3   OH228979   0.439   0.539   0.814  0.4978 -1.0696 -0.0407
 3931TIP3    H128980   0.499   0.508   0.746  1.3547  3.2102 -1.5610
 3931TIP3    H228981   0.489   0.605   0.861 -2.2337  0.9461  0.2390
 3932TIP3   OH228982   5.221   6.165   0.818 -0.2549 -0.3318  0.1574
 3932TIP3    H128983   5.161   6.156   0.743 -0.3726  0.4383  0.1514
 3932TIP3    H228984   5.308   6.146   0.781 -0.1894  0.9702 -0.4060
 3933TIP3   OH228985   1.532   3.908   7.306 -0.0025 -0.1977 -0.1788
 3933TIP3    H128986   1.584   3.939   7.380 -0.0944  0.4943 -0.3963
 3933TIP3    H228987   1.446   3.947   7.320  0.2507  0.7834 -1.1708
 3934TIP3   OH228988   1.125   3.077   0.253  0.2424  0.1835 -0.1117
 3934TIP3    H128989   1.183   3.006   0.279 -0.7780 -0.5664  0.1712
 3934TIP3    H228990   1.179   3.133   0.196  1.5937  0.1768  1.0976
 3935TIP3   OH228991   6.126   4.886   0.693  0.0921  0.3366 -0.0342
 3935TIP3    H128992   6.183   4.823   0.649 -0.0975 -0.2485  0.5494
 3935TIP3    H228993   6.089   4.939   0.621  2.1846  1.4702 -0.3514
 3936TIP3   OH228994   6.392   3.860   1.088 -0.0956  0.0641 -0.3954
 3936TIP3    H128995   6.298   3.841   1.088  0.1122 -1.2396  1.7431
 3936TIP3    H228996   6.408   3.897   1.002 -2.2786 -1.1672 -1.4295
 3937TIP3   OH228997   0.880   0.778   6.242 -0.5347  0.1025  0.0102
 3937TIP3    H128998   0.854   0.744   6.157 -1.4564 -1.0201  0.7086
 3937TIP3    H228999   0.834   0.862   6.250 -1.5938 -0.4479 -0.0369
 3938TIP3   OH229000   1.198   1.598   5.446  0.4202  0.0852 -0.2650
 3938TIP3    H129001   1.164   1.511   5.470  0.5014  0.0990 -0.0968
 3938TIP3    H229002   1.267   1.580   5.382 -1.1042  0.1557 -1.9996
 3939TIP3   OH229003   6.011   0.173   6.812 -0.6786  0.3740  0.2407
 3939TIP3    H129004   5.931   0.180   6.864 -0.6863 -2.3435  0.7542
 3939TIP3    H229005   6.014   0.081   6.786  0.7956  1.0394 -2.2503
 3940TIP3   OH229006   0.068   2.265   0.621 -0.1319 -0.3522  0.8967
 3940TIP3    H129007   0.107   2.322   0.554 -1.1333 -0.4310  0.2216
 3940TIP3    H229008   0.126   2.190   0.625  2.2593  1.4592  3.1120
 3941TIP3   OH229009   5.649   1.204   1.292  0.0412 -0.4328 -0.0302
 3941TIP3    H129010   5.575   1.265   1.289 -0.8954 -1.5804 -1.0538
 3941TIP3    H229011   5.726   1.260   1.296 -0.7333  0.8627 -1.8878
 3942TIP3   OH229012   3.396   3.508   7.497  0.2369  0.0332 -0.3368
 3942TIP3    H129013   3.372   3.464   7.415 -0.5743 -0.6243  0.2364
 3942TIP3    H229014   3.321   3.493   7.554  0.6005  0.8969  0.3699
 3943TIP3   OH229015   0.748   1.734   6.578  0.5691 -0.2268  0.6003
 3943TIP3    H129016   0.763   1.679   6.655 -0.1667  0.3501  1.1730
 3943TIP3    H229017   0.822   1.716   6.520  0.9761 -0.8907  1.3155
 3944TIP3   OH229018   6.485   4.378   7.584  0.6650 -0.7429  0.1753
 3944TIP3    H129019   6.477   4.297   7.535 -3.0378 -1.1980  1.2208
 3944TIP3    H229020   6.436   4.442   7.533  2.0597  0.4264  0.2445
 3945TIP3   OH229021   5.425   4.022   0.851 -0.3159  0.8527  0.5837
 3945TIP3    H129022   5.359   4.078   0.810 -2.1471 -1.3615  0.3276
 3945TIP3    H229023   5.375   3.964   0.909  1.6262  0.2809  1.7657
 3946TIP3   OH229024   4.735   1.498   1.705  0.1123 -0.2057  0.6047
 3946TIP3    H129025   4.652   1.453   1.721  0.4521 -1.0963 -0.0505
 3946TIP3    H229026   4.797   1.427   1.686  1.1378  0.4063  1.5467
 3947TIP3   OH229027   3.838   5.525   1.870 -0.1806  0.4296 -0.0999
 3947TIP3    H129028   3.796   5.609   1.852 -0.8521  0.2616  0.6109
 3947TIP3    H229029   3.783   5.485   1.938  1.5551  0.5306  1.4371
 3948TIP3   OH229030   1.348   5.500   1.443 -0.5578  0.4630 -0.1356
 3948TIP3    H129031   1.424   5.455   1.479 -0.1480  1.5579  0.4487
 3948TIP3    H229032   1.385   5.575   1.396 -1.2444  0.8261 -0.1095
 3949TIP3   OH229033   5.801   5.724   1.288  0.3702  0.0772 -0.2014
 3949TIP3    H129034   5.717   5.695   1.322 -2.2437  3.5589 -2.8965
 3949TIP3    H229035   5.851   5.750   1.366 -1.5490 -0.8765  1.4288
 3950TIP3   OH229036   5.176   3.882   6.898 -0.6161 -0.3934  0.0794
 3950TIP3    H129037   5.153   3.844   6.983 -2.1499 -0.2036 -0.2270
 3950TIP3    H229038   5.247   3.826   6.866 -0.5852 -0.9782  1.1061
 3951TIP3   OH229039   5.056   3.743   7.126  0.1565  0.4350 -0.4711
 3951TIP3    H129040   4.992   3.800   7.168  1.7999  0.1033  2.7152
 3951TIP3    H229041   5.006   3.665   7.101 -1.4500  1.8633 -2.0134
 3952TIP3   OH229042   3.604   1.207   6.368  0.0255 -0.4630 -0.1677
 3952TIP3    H129043   3.542   1.198   6.440 -0.0593  0.4117 -0.1198
 3952TIP3    H229044   3.572   1.282   6.318  0.4995 -0.6023 -0.7013
 3953TIP3   OH229045   3.490   0.884   5.183 -0.7174 -0.4185  0.3884
 3953TIP3    H129046   3.471   0.920   5.269  2.0403 -2.0203  1.8166
 3953TIP3    H229047   3.443   0.801   5.181 -0.1083 -0.7830  0.7507
 3954TIP3   OH229048   5.854   4.346   0.899 -0.3803 -0.0625  0.1737
 3954TIP3    H129049   5.862   4.326   0.992 -0.3590 -1.5516 -0.1288
 3954TIP3    H229050   5.779   4.295   0.870 -0.3025  0.2861 -0.6531
 3955TIP3   OH229051   4.054   4.257   7.066  0.4636  0.3380  0.2346
 3955TIP3    H129052   4.109   4.335   7.064 -1.2207  1.5526 -1.7142
 3955TIP3    H229053   3.975   4.284   7.113  0.5860 -0.7806  1.1575
 3956TIP3   OH229054   1.268   1.404   6.227 -0.0373 -0.0182  0.5866
 3956TIP3    H129055   1.299   1.405   6.136  0.4142  1.3763  0.7434
 3956TIP3    H229056   1.277   1.313   6.254 -0.7670 -0.5886 -0.9593
 3957TIP3   OH229057   3.767   1.856   2.358  0.3126  0.1312  0.2954
 3957TIP3    H129058   3.839   1.834   2.417  1.2962  0.5938 -0.6862
 3957TIP3    H229059   3.803   1.924   2.302 -0.5853 -0.2961 -0.8317
 3958TIP3   OH229060   0.342   0.261   6.893 -0.7940  0.8824  0.1347
 3958TIP3    H129061   0.411   0.307   6.845 -0.3369  1.0667  0.9548
 3958TIP3    H229062   0.267   0.262   6.833 -0.2950  1.2736 -0.4989
 3959TIP3   OH229063   1.244   5.919   6.445 -0.2703  0.1381  0.5886
 3959TIP3    H129064   1.228   5.997   6.393 -0.1198  0.8199  1.5299
 3959TIP3    H229065   1.291   5.859   6.387 -0.3446  0.7679 -0.1218
 3960TIP3   OH229066   1.704   2.021   6.237 -0.2426  0.2810  0.4724
 3960TIP3    H129067   1.677   2.113   6.232  0.7827  0.5478 -0.9471
 3960TIP3    H229068   1.800   2.025   6.229  0.2812 -0.6643  4.3601
 3961TIP3   OH229069   0.949   6.342   7.454 -0.0762 -0.4201 -0.3794
 3961TIP3    H129070   0.980   6.408   7.392  2.1254 -1.2169 -0.2031
 3961TIP3    H229071   0.991   6.261   7.426 -0.7393 -1.2375  0.8918
 3962TIP3   OH229072   1.859   6.254   1.620 -0.6114  0.0953  0.8093
 3962TIP3    H129073   1.801   6.323   1.653 -0.8891  1.0196 -1.4579
 3962TIP3    H229074   1.800   6.188   1.585 -0.6111  2.1059 -3.7424
 3963TIP3   OH229075   4.399   2.736   7.331 -0.2011 -0.1258  0.0277
 3963TIP3    H129076   4.379   2.799   7.402 -0.7249  1.2051 -1.2501
 3963TIP3    H229077   4.371   2.652   7.366  1.1698  0.2060  2.0821
 3964TIP3   OH229078   1.700   1.278   6.153  0.3588 -0.1308 -0.5040
 3964TIP3    H129079   1.751   1.314   6.225 -0.3852 -1.2499  0.6206
 3964TIP3    H229080   1.702   1.183   6.166  1.1000 -0.4581 -2.5849
 3965TIP3   OH229081   2.929   6.129   0.695  0.2614 -0.0690 -0.1556
 3965TIP3    H129082   2.929   6.224   0.682  1.1090  0.0796  0.8662
 3965TIP3    H229083   2.892   6.116   0.782  0.7515 -0.6457 -0.0283
 3966TIP3   OH229084   4.308   2.845   7.083  0.6462 -0.1143  0.2949
 3966TIP3    H129085   4.374   2.818   7.147  0.9027  2.3090  1.1611
 3966TIP3    H229086   4.226   2.844   7.132  0.8931  2.0900  0.8654
 3967TIP3   OH229087   1.578   1.197   1.132 -0.2021  0.0100 -0.5362
 3967TIP3    H129088   1.551   1.195   1.223  1.0383 -0.9165 -0.1528
 3967TIP3    H229089   1.648   1.132   1.126  0.7595  1.0746 -1.8102
 3968TIP3   OH229090   3.485   3.334   5.503 -0.1470 -0.9302 -0.5455
 3968TIP3    H129091   3.453   3.425   5.499 -0.5696 -1.0448 -0.0271
 3968TIP3    H229092   3.405   3.281   5.506  0.0230 -1.1768  1.8987
 3969TIP3   OH229093   1.006   4.465   1.463 -0.0467  0.6135 -0.1645
 3969TIP3    H129094   1.098   4.465   1.490 -0.1531 -1.0248  0.3701
 3969TIP3    H229095   1.006   4.504   1.376  1.4087 -0.7063 -0.8238
 3970TIP3   OH229096   1.033   5.395   5.714  0.0647 -0.2747  0.1369
 3970TIP3    H129097   0.994   5.358   5.635 -0.2533 -2.2379  1.1647
 3970TIP3    H229098   1.048   5.487   5.692 -0.0707 -0.7400 -2.1734
 3971TIP3   OH229099   3.774   3.002   0.911  0.3547  0.2125 -0.6764
 3971TIP3    H129100   3.792   2.970   0.823  0.3055  0.0102 -0.6132
 3971TIP3    H229101   3.830   3.079   0.921 -0.2986  0.7667 -1.2113
 3972TIP3   OH229102   2.566   6.576   6.327  0.1825 -0.2717 -0.2659
 3972TIP3    H129103   2.490   6.593   6.384  0.4335  0.8293 -0.2392
 3972TIP3    H229104   2.589   6.662   6.291  0.5200 -0.8257 -1.4253
 3973TIP3   OH229105   3.569   0.678   6.089 -0.3546  0.5815  0.6704
 3973TIP3    H129106   3.547   0.657   6.180  1.8132 -0.5006  0.9858
 3973TIP3    H229107   3.542   0.601   6.040  1.0942 -0.0613  0.8353
 3974TIP3   OH229108   1.658   4.918   0.878 -0.0766 -0.4604  0.1391
 3974TIP3    H129109   1.721   4.988   0.862 -1.2672  0.2174 -1.9408
 3974TIP3    H229110   1.583   4.962   0.920 -0.2854 -0.7469  0.0712
 3975TIP3   OH229111   5.850   2.666   7.602  0.0635 -0.1064 -0.3391
 3975TIP3    H129112   5.791   2.647   7.530  1.7480  0.6050 -2.0090
 3975TIP3    H229113   5.902   2.586   7.612 -1.4364 -0.9288  1.4826
 3976TIP3   OH229114   2.974   5.684   7.671 -0.5090 -0.5065 -0.2638
 3976TIP3    H129115   2.932   5.667   7.587 -0.8883 -1.3908  0.0905
 3976TIP3    H229116   2.998   5.597   7.704  1.4476 -0.0461 -0.3629
 3977TIP3   OH229117   0.984   0.372   5.653  1.3369  0.2261 -0.3630
 3977TIP3    H129118   1.049   0.349   5.586  3.1680  3.9790 -0.1324
 3977TIP3    H229119   0.916   0.420   5.606  0.6917 -0.3353 -0.0276
 3978TIP3   OH229120   2.206   1.525   2.438  0.0878  0.1475  0.5686
 3978TIP3    H129121   2.203   1.612   2.478  1.1954 -0.3674  1.8459
 3978TIP3    H229122   2.278   1.480   2.483 -0.9534 -1.7018  0.5080
 3979TIP3   OH229123   1.272   1.996   5.948  0.2792 -0.2706 -0.2940
 3979TIP3    H129124   1.324   1.917   5.964  1.2917  0.8778  3.0327
 3979TIP3    H229125   1.181   1.966   5.956  0.6529 -0.9792  2.2925
 3980TIP3   OH229126   3.408   6.352   0.858 -0.5001 -0.3782 -0.0719
 3980TIP3    H129127   3.458   6.321   0.783  0.3939 -0.8584  0.7090
 3980TIP3    H229128   3.366   6.432   0.827 -1.0617 -1.1667 -1.4268
 3981TIP3   OH229129   0.853   2.781   1.606  0.0196  0.0672 -0.3893
 3981TIP3    H129130   0.846   2.851   1.541 -0.3569  3.1405  2.6570
 3981TIP3    H229131   0.835   2.825   1.689  1.7233 -3.3213  1.9679
 3982TIP3   OH229132   3.726   0.244   5.390  0.1968  0.1269  0.0463
 3982TIP3    H129133   3.631   0.255   5.389  0.3035  1.3591  1.0986
 3982TIP3    H229134   3.741   0.157   5.428 -0.5100 -0.4279 -0.9053
 3983TIP3   OH229135   6.276   6.162   6.690  0.2614  0.4908 -0.3936
 3983TIP3    H129136   6.249   6.142   6.601  1.6712  0.9049 -0.9456
 3983TIP3    H229137   6.300   6.077   6.727 -1.1261  0.2077 -0.1069
 3984TIP3   OH229138   4.676   5.310   6.505  0.0691 -0.4329  0.2257
 3984TIP3    H129139   4.754   5.362   6.525  0.4816 -1.3486  1.0828
 3984TIP3    H229140   4.657   5.329   6.413  1.4148 -0.3439 -0.0449
 3985TIP3   OH229141   1.761   3.763   0.675 -0.1029 -0.1479 -0.4689
 3985TIP3    H129142   1.669   3.783   0.689  0.0859  0.2267  0.3524
 3985TIP3    H229143   1.768   3.669   0.689 -0.3858 -0.1970 -0.6617
 3986TIP3   OH229144   5.554   3.208   0.356  0.6365  0.4573  0.0639
 3986TIP3    H129145   5.563   3.277   0.290  1.0267  0.4071  0.0619
 3986TIP3    H229146   5.551   3.127   0.305 -1.0517  0.5409 -0.0143
 3987TIP3   OH229147   3.734   0.961   0.421  0.0722 -0.0086  0.2099
 3987TIP3    H129148   3.798   1.031   0.405 -1.2899  1.0077 -1.2097
 3987TIP3    H229149   3.692   0.948   0.336  0.7332 -3.1045  0.2393
 3988TIP3   OH229150   1.124   1.621   1.001  0.9263  0.1277  0.0599
 3988TIP3    H129151   1.219   1.615   0.991  0.7956 -1.4873 -0.4898
 3988TIP3    H229152   1.096   1.531   1.020 -0.2438  0.9399  2.6759
 3989TIP3   OH229153   4.950   1.327   7.309 -0.3027 -0.5370 -0.0859
 3989TIP3    H129154   5.006   1.266   7.357 -0.7447 -0.8822  0.0057
 3989TIP3    H229155   4.861   1.299   7.330 -0.5232 -1.1632 -1.6585
 3990TIP3   OH229156   0.638   5.734   1.884 -0.5190  0.2294 -0.4598
 3990TIP3    H129157   0.690   5.710   1.961 -0.9092  1.0389  0.0694
 3990TIP3    H229158   0.611   5.651   1.847 -1.8982 -0.1933  1.3504
 3991TIP3   OH229159   1.379   6.075   5.593 -0.0744  0.7427 -0.2967
 3991TIP3    H129160   1.371   5.980   5.581 -0.2248  0.9278 -1.8796
 3991TIP3    H229161   1.427   6.084   5.675  0.7753 -0.7313 -0.5809
 3992TIP3   OH229162   6.313   0.162   6.218 -0.6170  0.5180 -0.7492
 3992TIP3    H129163   6.363   0.219   6.276 -0.6713 -0.7138  0.5459
 3992TIP3    H229164   6.373   0.092   6.195 -1.1582  0.0288 -0.7023
 3993TIP3   OH229165   2.013   6.056   0.954  0.4760 -0.5897 -0.1058
 3993TIP3    H129166   2.080   6.049   0.886 -1.2616 -0.1229 -1.9615
 3993TIP3    H229167   1.933   6.024   0.912 -0.7517  0.0669  1.6132
 3994TIP3   OH229168   0.110   6.640   5.577 -0.0788 -0.2707  0.5381
 3994TIP3    H129169   0.169   6.655   5.504  0.0845  0.5583  0.8345
 3994TIP3    H229170   0.023   6.639   5.539 -0.0908  1.3585  0.4900
 3995TIP3   OH229171   0.513   4.739   6.855 -0.1208  0.1335  0.5177
 3995TIP3    H129172   0.444   4.748   6.789  0.2909 -0.2758  0.0219
 3995TIP3    H229173   0.547   4.827   6.866 -0.2373  0.2169  0.2289
 3996TIP3   OH229174   2.681   3.688   1.636  0.0482  0.4442  0.3869
 3996TIP3    H129175   2.587   3.688   1.623 -0.0824 -1.1044  1.1347
 3996TIP3    H229176   2.715   3.751   1.572 -1.4985  1.2125  0.2941
 3997TIP3   OH229177   3.878   0.431   5.864 -0.1536 -0.8202 -0.5572
 3997TIP3    H129178   3.865   0.392   5.778  1.4257 -0.5310 -0.9531
 3997TIP3    H229179   3.971   0.449   5.868 -0.7573  2.9289 -0.4043
 3998TIP3   OH229180   4.691   1.401   7.549 -0.3394  0.0187  0.1432
 3998TIP3    H129181   4.705   1.487   7.508 -2.3614  0.5986  0.5583
 3998TIP3    H229182   4.664   1.345   7.476 -0.2822  0.0687  0.0827
 3999TIP3   OH229183   0.890   2.192   1.050  0.4514 -0.4627  0.1151
 3999TIP3    H129184   0.908   2.275   1.095  4.6765 -0.9234 -0.3337
 3999TIP3    H229185   0.883   2.216   0.958  2.1963 -0.5903 -0.0764
 4000TIP3   OH229186   2.925   5.540   7.059 -0.3450  0.7868 -0.3440
 4000TIP3    H129187   2.986   5.508   6.992  0.5734  1.9176 -0.0715
 4000TIP3    H229188   2.978   5.548   7.138 -0.7784  2.0524 -0.1664
 4001TIP3   OH229189   4.451   1.930   2.274 -0.2143 -0.0193 -0.2299
 4001TIP3    H129190   4.521   1.864   2.274 -1.4025 -1.3318  0.8390
 4001TIP3    H229191   4.376   1.886   2.235 -1.3964  0.2758  1.6013
 4002TIP3   OH229192   2.215   0.520   1.100 -0.3958 -0.1491  0.1689
 4002TIP3    H129193   2.281   0.495   1.165 -2.5196  0.0058  2.5321
 4002TIP3    H229194   2.266   0.552   1.025  2.1951  0.3651  2.0197
 4003TIP3   OH229195   0.304   2.807   0.218  0.2720 -0.1015  0.1509
 4003TIP3    H129196   0.235   2.866   0.248  0.1484 -0.0034 -0.3156
 4003TIP3    H229197   0.370   2.810   0.287  0.6723  1.2694 -0.2561
 4004TIP3   OH229198   0.503   4.285   6.931 -0.2045 -0.1353  0.3658
 4004TIP3    H129199   0.572   4.328   6.879 -1.6049 -0.4386 -1.9142
 4004TIP3    H229200   0.502   4.334   7.013  2.3660  0.1781  0.3192
 4005TIP3   OH229201   6.628   5.291   1.075  0.1297 -0.5237  0.4063
 4005TIP3    H129202   6.578   5.248   1.005  0.1049  2.6610 -1.7513
 4005TIP3    H229203   6.564   5.346   1.120  1.0048  1.1280 -0.2792
 4006TIP3   OH229204   2.606   2.938   0.456  0.4775 -0.3513 -1.0117
 4006TIP3    H129205   2.517   2.905   0.446  0.9029 -1.5350 -1.1337
 4006TIP3    H229206   2.643   2.885   0.527  1.3394 -0.4775 -1.5412
 4007TIP3   OH229207   4.753   5.599   1.899  0.2333  0.2601 -0.2189
 4007TIP3    H129208   4.832   5.653   1.899  0.3374  0.1225 -1.0718
 4007TIP3    H229209   4.785   5.509   1.896  0.0773  0.0750  1.9126
 4008TIP3   OH229210   4.431   1.904   7.221  0.2737  0.0692  0.0390
 4008TIP3    H129211   4.384   1.862   7.149  0.4907 -0.5585  0.2604
 4008TIP3    H229212   4.511   1.939   7.181 -0.0663  0.5684 -0.2103
 4009TIP3   OH229213   5.308   2.165   2.372 -0.0783 -0.5897  0.0130
 4009TIP3    H129214   5.352   2.113   2.440 -1.1629 -0.1968  1.0560
 4009TIP3    H229215   5.234   2.111   2.345 -0.6918  0.0230  0.4514
 4010TIP3   OH229216   6.391   0.212   0.741 -0.0054  0.0776  0.3673
 4010TIP3    H129217   6.480   0.246   0.736 -0.2292  0.8943  1.4914
 4010TIP3    H229218   6.347   0.268   0.805 -1.3879 -0.1950 -0.3000
 4011TIP3   OH229219   2.508   2.505   7.706  0.2004  0.3717  0.0627
 4011TIP3    H129220   2.447   2.485   7.777  0.4063 -0.6751 -0.0321
 4011TIP3    H229221   2.452   2.509   7.628 -0.2395  2.9442  0.4354
 4012TIP3   OH229222   5.507   4.945   0.995  0.1463  0.0365 -0.1984
 4012TIP3    H129223   5.423   4.924   1.035  0.3355 -1.0783 -0.3611
 4012TIP3    H229224   5.491   4.943   0.901  0.3857 -0.3387 -0.2340
 4013TIP3   OH229225   3.219   6.547   7.252 -0.2715  0.6223 -0.1349
 4013TIP3    H129226   3.130   6.575   7.270  0.0856  1.3945  0.4751
 4013TIP3    H229227   3.210   6.474   7.190 -1.4223 -0.6381  1.4524
 4014TIP3   OH229228   1.008   5.290   6.420  0.3540 -0.0496 -0.5067
 4014TIP3    H129229   1.005   5.372   6.470 -0.3903  0.0840 -0.7618
 4014TIP3    H229230   0.991   5.222   6.486 -0.5411  0.1193 -0.5513
 4015TIP3   OH229231   4.861   4.627   1.600 -0.2473 -0.7317  0.4366
 4015TIP3    H129232   4.770   4.596   1.598 -0.0089 -1.3971 -0.2689
 4015TIP3    H229233   4.913   4.547   1.605  0.2958 -0.3374  1.2326
 4016TIP3   OH229234   1.800   1.943   1.172  0.2594  0.0724 -0.1861
 4016TIP3    H129235   1.787   1.871   1.110 -1.1629  0.1586 -0.0052
 4016TIP3    H229236   1.795   1.901   1.258  0.4198  0.2375 -0.0969
 4017TIP3   OH229237   1.211   1.497   7.509 -0.3787 -0.1778 -0.0839
 4017TIP3    H129238   1.180   1.558   7.576  0.6857  1.0643 -0.6688
 4017TIP3    H229239   1.259   1.552   7.447  1.7425 -1.7793  0.0289
 4018TIP3   OH229240   5.334   3.467   7.268 -0.0751  0.0926  0.1918
 4018TIP3    H129241   5.280   3.406   7.218  0.2386 -0.3881  0.4324
 4018TIP3    H229242   5.421   3.460   7.228 -0.2872  1.2253 -0.5182
 4019TIP3   OH229243   3.455   2.419   7.223  0.0603  0.3140  0.4647
 4019TIP3    H129244   3.384   2.386   7.277 -0.6387  2.4915  0.9765
 4019TIP3    H229245   3.488   2.496   7.271  1.4235  0.5414 -0.7549
 4020TIP3   OH229246   1.291   5.812   1.083  0.2481 -0.3317  0.0750
 4020TIP3    H129247   1.227   5.799   1.152  0.3240 -0.6435  0.0877
 4020TIP3    H229248   1.310   5.906   1.085  1.0984 -0.5129  1.2284
 4021TIP3   OH229249   6.222   3.666   0.480  0.2139 -0.1000  0.2224
 4021TIP3    H129250   6.163   3.595   0.507 -0.0034 -0.6015 -1.4912
 4021TIP3    H229251   6.164   3.732   0.442  0.4970  0.7088  1.1401
 4022TIP3   OH229252   0.173   0.500   1.904 -0.9020  0.4518 -0.0135
 4022TIP3    H129253   0.136   0.460   1.983 -1.8210 -0.4093 -0.8542
 4022TIP3    H229254   0.106   0.487   1.837  0.2513  0.3151 -1.1781
 4023TIP3   OH229255   5.670   3.314   7.500  0.4880  0.4422 -0.4623
 4023TIP3    H129256   5.668   3.406   7.474  0.2519  0.9609  1.2670
 4023TIP3    H229257   5.592   3.303   7.554  1.8826 -0.0687  1.5393
 4024TIP3   OH229258   4.211   1.400   6.369 -0.1572 -0.1907  0.3322
 4024TIP3    H129259   4.137   1.437   6.419 -0.0243  2.3430 -1.1908
 4024TIP3    H229260   4.169   1.347   6.301 -0.4445 -0.9412  1.0730
 4025TIP3   OH229261   2.179   2.454   7.633 -0.0867 -0.5212 -0.1679
 4025TIP3    H129262   2.165   2.493   7.547  0.5551  1.3968  0.5463
 4025TIP3    H229263   2.179   2.359   7.617 -1.3695 -0.2604 -2.0340
 4026TIP3   OH229264   5.814   4.284   0.042  0.1583  0.0427  0.1594
 4026TIP3    H129265   5.793   4.243  -0.042 -1.3373  0.1198  0.4627
 4026TIP3    H229266   5.846   4.212   0.097 -2.0782 -0.7570  0.5657
 4027TIP3   OH229267   5.008   4.796   7.155 -0.2019  0.5083  0.1109
 4027TIP3    H129268   4.996   4.725   7.093 -0.0442 -0.1609  0.8259
 4027TIP3    H229269   5.103   4.798   7.172 -0.2581  0.5922  0.4299
 4028TIP3   OH229270   1.025   2.794   0.471 -0.1374 -0.8859  0.2871
 4028TIP3    H129271   0.929   2.786   0.469 -0.2028  0.0138 -0.3125
 4028TIP3    H229272   1.044   2.829   0.558 -0.4156 -0.3709  0.1459
 4029TIP3   OH229273   4.153   0.499   5.905 -0.4713 -0.2989 -0.5656
 4029TIP3    H129274   4.223   0.561   5.925 -0.6299  0.1189 -1.3014
 4029TIP3    H229275   4.189   0.414   5.932  0.2234 -0.0564 -0.7102
 4030TIP3   OH229276   0.142   0.025   1.516  0.0085 -0.1816  0.6050
 4030TIP3    H129277   0.219   0.026   1.573  0.0358  2.1500  0.6091
 4030TIP3    H229278   0.151   0.102   1.460 -0.8634 -1.4711 -1.4672
 4031TIP3   OH229279   6.522   4.227   1.295  0.3420  0.3899 -0.2672
 4031TIP3    H129280   6.508   4.258   1.206  0.3983  1.8038  0.1834
 4031TIP3    H229281   6.598   4.277   1.326 -0.4353  0.8623  0.9778
 4032TIP3   OH229282   5.957   5.240   1.493  0.2579 -0.2822 -0.1721
 4032TIP3    H129283   5.953   5.217   1.400 -0.6280 -0.0636 -0.1908
 4032TIP3    H229284   5.892   5.184   1.535  1.0421 -0.7752  0.4074
 4033TIP3   OH229285   4.476   2.538   7.739 -0.0414  0.1252 -0.7685
 4033TIP3    H129286   4.562   2.580   7.741 -0.2993  0.6528 -0.3281
 4033TIP3    H229287   4.438   2.558   7.824 -0.2053 -0.9614 -0.5820
 4034TIP3   OH229288   1.288   6.610   6.122  0.1317  0.0136 -0.0419
 4034TIP3    H129289   1.312   6.688   6.172 -0.2013  0.0530  0.0541
 4034TIP3    H229290   1.373   6.571   6.097  0.3531 -0.8960  1.9159
 4035TIP3   OH229291   2.647   3.654   5.981 -0.2618  0.2218  0.4680
 4035TIP3    H129292   2.555   3.635   6.002 -0.5131  0.8247 -0.0550
 4035TIP3    H229293   2.649   3.749   5.967  0.4755  0.2360  0.6318
 4036TIP3   OH229294   1.891   1.631   6.087  0.3127 -0.4960  0.0141
 4036TIP3    H129295   1.936   1.686   6.151 -0.9085  0.3029  0.2234
 4036TIP3    H229296   1.898   1.679   6.005 -1.8287  0.6912  0.4335
 4037TIP3   OH229297   4.967   3.037   0.347  0.0050  0.7947 -0.6225
 4037TIP3    H129298   5.042   3.096   0.352  1.8365 -1.2806 -1.7587
 4037TIP3    H229299   4.987   2.967   0.410 -1.4544  0.6676 -0.2590
 4038TIP3   OH229300   6.023   2.760   6.363 -0.3803  0.3772  0.0491
 4038TIP3    H129301   5.930   2.737   6.373 -1.1847  3.2062 -0.1294
 4038TIP3    H229302   6.024   2.823   6.291  1.4872  1.5760  1.0754
 4039TIP3   OH229303   0.348   4.054   1.396 -0.6944  0.2683 -0.0155
 4039TIP3    H129304   0.315   3.980   1.447  0.2657  0.2932  0.6468
 4039TIP3    H229305   0.272   4.083   1.346 -1.4246 -0.3175  0.7222
 4040TIP3   OH229306   0.596   1.200   1.043 -0.4386 -0.5949  0.1664
 4040TIP3    H129307   0.516   1.205   0.990 -0.6792 -0.8175  0.5042
 4040TIP3    H229308   0.627   1.291   1.047 -0.8031 -0.4700  0.2309
 4041TIP3   OH229309   5.679   5.664   5.875  0.1809 -0.3628 -0.3011
 4041TIP3    H129310   5.648   5.684   5.963 -1.5308  0.3255 -1.0038
 4041TIP3    H229311   5.641   5.579   5.854  0.7594 -0.6251 -0.3170
 4042TIP3   OH229312   0.158   4.995   6.754 -0.0818 -0.3365 -0.6342
 4042TIP3    H129313   0.071   4.955   6.761  0.7985 -2.2168  0.0745
 4042TIP3    H229314   0.197   4.982   6.841  0.3565  1.9270 -0.4306
 4043TIP3   OH229315   2.866   3.965   7.361  0.3879  0.3876  0.6090
 4043TIP3    H129316   2.805   4.012   7.305 -0.8263 -0.7138  0.9737
 4043TIP3    H229317   2.909   3.902   7.304  1.5231  1.4126  0.2692
 4044TIP3   OH229318   2.771   3.263   6.649 -0.0485  0.3972  0.3310
 4044TIP3    H129319   2.676   3.260   6.640  0.0132  0.1618 -0.2998
 4044TIP3    H229320   2.800   3.177   6.621  0.3743  0.5710  0.2295
 4045TIP3   OH229321   3.730   1.348   6.997  0.2636  0.0780 -0.1292
 4045TIP3    H129322   3.710   1.285   7.067  1.9944 -1.1834 -0.7208
 4045TIP3    H229323   3.675   1.321   6.924  0.0568  0.0622  0.0303
 4046TIP3   OH229324   4.372   0.325   6.668 -0.0156  0.0947 -0.2696
 4046TIP3    H129325   4.308   0.339   6.738 -0.4253  0.8007 -0.7716
 4046TIP3    H229326   4.319   0.316   6.589  0.3745 -1.9172 -0.3447
 4047TIP3   OH229327   1.902   2.587   1.620  0.2728 -0.4070  0.0588
 4047TIP3    H129328   1.891   2.677   1.651 -1.5477 -0.6822  0.3391
 4047TIP3    H229329   1.888   2.532   1.697  0.5202 -0.9571 -0.2757
 4048TIP3   OH229330   1.948   3.739   7.677 -0.4494  0.2285 -0.6379
 4048TIP3    H129331   1.892   3.673   7.636 -0.5654 -0.5684  0.7570
 4048TIP3    H229332   1.972   3.702   7.762  1.2717  1.0544 -0.7204
 4049TIP3   OH229333   1.711   5.796   6.740  0.0180  0.5342 -0.3434
 4049TIP3    H129334   1.803   5.800   6.714  0.0784  0.8145 -0.0942
 4049TIP3    H229335   1.662   5.803   6.658  0.2265 -1.5802 -0.6916
 4050TIP3   OH229336   2.367   4.601   1.032  0.7809 -0.1038 -0.4797
 4050TIP3    H129337   2.437   4.622   0.969  0.9387 -1.1566 -0.6856
 4050TIP3    H229338   2.296   4.568   0.977  0.3234  0.4660 -0.2253
 4051TIP3   OH229339   3.622   5.773   0.855 -0.2207  0.1656 -0.3810
 4051TIP3    H129340   3.545   5.796   0.803 -1.0181 -2.2296 -0.3681
 4051TIP3    H229341   3.595   5.786   0.946  0.5725  2.5884 -0.4307
 4052TIP3   OH229342   2.801   6.567   6.649 -0.2713 -0.1145 -0.2906
 4052TIP3    H129343   2.789   6.660   6.667 -3.4502 -0.6692  1.2622
 4052TIP3    H229344   2.877   6.541   6.701 -0.0362  1.3959  0.1601
 4053TIP3   OH229345   2.431   2.812   1.469 -0.2762 -0.0928  0.5560
 4053TIP3    H129346   2.379   2.868   1.527 -0.1552  0.5711  0.0379
 4053TIP3    H229347   2.438   2.729   1.516 -2.4221 -0.4541  0.3444
 4054TIP3   OH229348   4.896   1.259   1.707 -0.3346  0.5967  0.7387
 4054TIP3    H129349   4.967   1.248   1.770 -1.0236  0.8072  1.5676
 4054TIP3    H229350   4.839   1.184   1.722  0.6593 -0.6420 -1.2401
 4055TIP3   OH229351   5.946   2.069   6.790 -0.6678  0.4370 -1.1300
 4055TIP3    H129352   6.029   2.023   6.775 -0.1123  1.5257 -1.4995
 4055TIP3    H229353   5.972   2.159   6.811 -1.6931  0.4191  0.3368
 4056TIP3   OH229354   2.284   3.859   1.767  0.3357  0.2235  0.1262
 4056TIP3    H129355   2.191   3.850   1.744  0.0086  1.3859  0.9170
 4056TIP3    H229356   2.315   3.769   1.773 -1.0350 -0.2325  0.9559
 4057TIP3   OH229357   5.990   1.316   0.327  0.0085  0.3193 -0.2459
 4057TIP3    H129358   6.039   1.313   0.409 -0.4891  0.5086  0.0609
 4057TIP3    H229359   5.993   1.226   0.294  0.3056  0.2666 -0.0782
 4058TIP3   OH229360   5.326   1.199   7.327  0.0748 -0.3192 -0.3034
 4058TIP3    H129361   5.422   1.201   7.330  0.1037 -0.4986  3.2783
 4058TIP3    H229362   5.305   1.107   7.308  0.5670 -0.1493 -1.7603
 4059TIP3   OH229363   1.863   6.320   6.854  0.0603  0.0679  0.4587
 4059TIP3    H129364   1.770   6.341   6.853 -0.0868 -0.5316 -1.2143
 4059TIP3    H229365   1.867   6.225   6.863  0.4823  0.0111 -0.2678
 4060TIP3   OH229366   3.826   5.060   0.360 -0.8493 -0.6339  0.1012
 4060TIP3    H129367   3.918   5.085   0.362 -1.0467  0.1038  0.6065
 4060TIP3    H229368   3.815   5.015   0.276 -0.0097 -0.8344  0.0912
 4061TIP3   OH229369   6.127   3.811   1.052 -0.6364 -0.0042 -0.3949
 4061TIP3    H129370   6.046   3.861   1.039  0.6704  1.9485 -1.5397
 4061TIP3    H229371   6.124   3.743   0.985 -1.6313 -0.4096  0.0393
 4062TIP3   OH229372   3.143   1.512   6.561  0.0937 -0.2999 -0.7049
 4062TIP3    H129373   3.089   1.472   6.494  1.5851 -0.9792 -1.5588
 4062TIP3    H229374   3.228   1.469   6.552  0.6064  0.2859  0.9892
 4063TIP3   OH229375   6.355   0.557   7.048  0.1570  0.2239 -0.4653
 4063TIP3    H129376   6.392   0.483   7.095  0.0875 -0.2183 -1.0913
 4063TIP3    H229377   6.361   0.630   7.109  3.8906  0.6933 -1.1189
 4064TIP3   OH229378   5.924   1.267   6.726  0.0565 -0.8372 -0.2519
 4064TIP3    H129379   5.983   1.301   6.793 -1.0901  0.8988 -0.0435
 4064TIP3    H229380   5.836   1.276   6.764 -0.6141  0.1182 -1.9060
 4065TIP3   OH229381   5.410   0.877   7.048 -0.1844  0.1956  0.5623
 4065TIP3    H129382   5.375   0.834   6.970 -0.6340 -0.0014  0.8712
 4065TIP3    H229383   5.341   0.937   7.077  0.9914  2.2972 -0.7284
 4066TIP3   OH229384   1.404   2.034   6.802  0.2304  0.3390  0.5131
 4066TIP3    H129385   1.411   2.096   6.874 -0.8655  0.6021  0.4000
 4066TIP3    H229386   1.400   2.089   6.723  2.2421  0.0456  0.1364
 4067TIP3   OH229387   2.157   3.397   1.601 -0.1307  0.1464  0.1042
 4067TIP3    H129388   2.208   3.336   1.653 -1.2539  0.2491  1.3633
 4067TIP3    H229389   2.179   3.376   1.510  1.4575 -0.3845  0.5884
 4068TIP3   OH229390   2.543   4.849   0.900 -0.0579  0.2774  0.2235
 4068TIP3    H129391   2.449   4.859   0.914 -0.3309  0.0143 -1.2702
 4068TIP3    H229392   2.579   4.936   0.921 -0.8422  0.8523 -0.7278
 4069TIP3   OH229393   5.880   3.284   0.491 -0.4188  0.1546  0.0385
 4069TIP3    H129394   5.810   3.346   0.473 -2.3918 -2.0456 -0.3990
 4069TIP3    H229395   5.854   3.205   0.443  2.6028 -0.6388 -0.4857
 4070TIP3   OH229396   2.406   3.329   1.939  0.7191 -0.0090 -0.3918
 4070TIP3    H129397   2.501   3.326   1.934  0.7556 -1.0280  0.6777
 4070TIP3    H229398   2.386   3.349   2.030 -0.1004  0.2738 -0.6156
 4071TIP3   OH229399   2.072   4.243   0.208  0.4609  0.3533 -0.3519
 4071TIP3    H129400   2.062   4.275   0.118 -1.5266  0.4141 -0.1501
 4071TIP3    H229401   2.141   4.176   0.202  1.9859  1.9342 -1.4667
 4072TIP3   OH229402   1.447   5.023   0.666  0.1723  0.9045  0.0202
 4072TIP3    H129403   1.414   5.029   0.576  3.4986  0.5175 -1.3903
 4072TIP3    H229404   1.478   4.932   0.674 -2.4678  0.0710  2.6266
 4073TIP3   OH229405   4.474   0.698   0.882 -0.1546  0.1259  0.0553
 4073TIP3    H129406   4.448   0.642   0.955 -0.6713 -0.4804 -0.5845
 4073TIP3    H229407   4.561   0.729   0.907 -0.7165  0.7194  1.3762
 4074TIP3   OH229408   1.208   5.548   0.921  1.0358  0.0296 -0.3948
 4074TIP3    H129409   1.233   5.566   0.830 -0.0128  0.4314 -0.6240
 4074TIP3    H229410   1.237   5.626   0.969  1.8310 -0.2990 -0.3271
 4075TIP3   OH229411   3.371   0.288   5.655  0.2843  0.2815  0.2361
 4075TIP3    H129412   3.342   0.232   5.727  0.7829  1.1958  1.1772
 4075TIP3    H229413   3.328   0.372   5.671 -0.1859  0.2887 -0.9680
 4076TIP3   OH229414   4.545   4.035   0.014 -0.3414 -0.2524  0.6745
 4076TIP3    H129415   4.482   4.024   0.086 -1.8848 -2.0324 -0.8593
 4076TIP3    H229416   4.497   4.010  -0.065  2.0862 -1.0071 -0.6805
 4077TIP3   OH229417   1.379   2.030   2.067  0.1979 -0.1709 -0.1026
 4077TIP3    H129418   1.416   2.081   2.139  2.2541  0.3169 -1.4219
 4077TIP3    H229419   1.325   2.092   2.018 -1.8995 -0.7002  1.3939
 4078TIP3   OH229420   4.157   4.721   6.812 -0.2253  0.3230  0.0928
 4078TIP3    H129421   4.068   4.704   6.841 -0.2048 -1.5964 -0.8075
 4078TIP3    H229422   4.212   4.697   6.887 -0.4229  0.7298  0.3683
 4079TIP3   OH229423   5.921   3.556   7.012 -0.0399  0.1700  0.3454
 4079TIP3    H129424   5.827   3.538   7.020 -0.3602 -0.3959 -3.1156
 4079TIP3    H229425   5.926   3.650   6.994 -0.3070 -0.2340 -2.2427
 4080TIP3   OH229426   2.381   6.554   0.573 -0.1207  0.3861  0.1760
 4080TIP3    H129427   2.381   6.518   0.484 -0.3960  1.5729 -0.3271
 4080TIP3    H229428   2.372   6.648   0.560 -1.3825  0.4752  1.5161
 4081TIP3   OH229429   0.542   6.415   0.265  0.4692 -0.6792 -0.1017
 4081TIP3    H129430   0.526   6.423   0.359  0.8527  0.0689 -0.0912
 4081TIP3    H229431   0.462   6.447   0.223  0.8797  0.4765 -0.0324
 4082TIP3   OH229432   2.113   2.819   6.159 -1.1074  0.3554  0.4068
 4082TIP3    H129433   2.023   2.790   6.142 -0.9662  0.9228 -1.5716
 4082TIP3    H229434   2.110   2.914   6.149 -0.3170  0.3945  0.4389
 4083TIP3   OH229435   5.832   5.454   7.223 -0.0421 -0.3313 -0.2914
 4083TIP3    H129436   5.767   5.524   7.212 -0.8301 -0.8435  0.8634
 4083TIP3    H229437   5.915   5.495   7.200 -0.4234  1.1136  0.7170
 4084TIP3   OH229438   1.569   6.054   0.571 -0.0303  0.4051  0.5238
 4084TIP3    H129439   1.651   6.077   0.614  0.1161  0.7865  0.0452
 4084TIP3    H229440   1.587   6.064   0.477 -1.3964  3.3098  0.4416
 4085TIP3   OH229441   2.683   5.039   1.425  0.6003 -0.2138  0.2647
 4085TIP3    H129442   2.716   5.025   1.513  1.9704  1.8292  0.1256
 4085TIP3    H229443   2.731   5.115   1.392  0.5352 -1.2112 -2.4438
 4086TIP3   OH229444   4.895   2.993   1.426  0.5799 -0.6020  0.1237
 4086TIP3    H129445   4.980   2.949   1.416 -0.1330 -1.7416 -1.2944
 4086TIP3    H229446   4.847   2.939   1.489  1.2120  0.5809  1.6781
 4087TIP3   OH229447   0.622   3.510   0.044 -0.3276 -0.8033  0.0981
 4087TIP3    H129448   0.570   3.566  -0.013  1.9449  0.5073 -0.8314
 4087TIP3    H229449   0.611   3.547   0.132  0.1774  0.4037 -0.3236
 4088TIP3   OH229450   0.329   3.366   6.662 -0.1720  0.3345 -0.5753
 4088TIP3    H129451   0.272   3.296   6.692  0.1692  1.2575  2.5998
 4088TIP3    H229452   0.276   3.445   6.669  0.9306  0.9992  0.8877
 4089TIP3   OH229453   6.588   0.087   1.353 -0.2539 -0.5177 -0.3906
 4089TIP3    H129454   6.575   0.170   1.399 -1.5001 -0.7900 -0.2099
 4089TIP3    H229455   6.584   0.110   1.260  0.0752 -0.2879 -0.3511
 4090TIP3   OH229456   5.935   5.953   7.392 -0.1095  0.4617 -0.0038
 4090TIP3    H129457   5.891   5.890   7.449 -0.9012  0.1097 -0.9726
 4090TIP3    H229458   6.024   5.957   7.426 -0.0995 -1.0022  0.2405
 4091TIP3   OH229459   2.479   1.771   1.180 -0.1903 -0.0434  0.5579
 4091TIP3    H129460   2.402   1.737   1.135  1.5778 -4.1821  0.2169
 4091TIP3    H229461   2.523   1.825   1.114  0.5460 -3.1706 -1.7591
 4092TIP3   OH229462   0.043   4.374   0.512  0.2347 -0.4979  0.0568
 4092TIP3    H129463   0.082   4.456   0.543 -1.1215  0.5235 -0.8270
 4092TIP3    H229464  -0.017   4.348   0.582  0.6959 -0.7591  0.3556
 4093TIP3   OH229465   3.562   5.670   0.585 -0.0506 -0.2724  0.1730
 4093TIP3    H129466   3.477   5.671   0.541 -0.5425 -0.0057  1.1081
 4093TIP3    H229467   3.542   5.691   0.676  0.9965 -0.4278  0.4482
 4094TIP3   OH229468   2.483   2.050   5.815  0.5587 -0.1269 -0.5178
 4094TIP3    H129469   2.526   2.110   5.753  1.1968 -0.3126 -0.2642
 4094TIP3    H229470   2.548   2.038   5.885 -0.4146  0.6379  0.5503
 4095TIP3   OH229471   1.961   1.345   4.351 -0.0858  0.3905  0.5302
 4095TIP3    H129472   2.010   1.298   4.418  1.0733 -0.5668 -0.9377
 4095TIP3    H229473   2.018   1.346   4.275 -1.2909  1.6023 -0.4241
 4096TIP3   OH229474   5.325   3.513   0.554  0.0335 -0.0993  0.7306
 4096TIP3    H129475   5.296   3.576   0.620 -1.0837 -0.2189  0.3718
 4096TIP3    H229476   5.406   3.552   0.519 -0.3134  0.8380  0.9329
 4097TIP3   OH229477   5.133   3.277   7.150 -0.4413  0.3622 -0.3604
 4097TIP3    H129478   5.045   3.287   7.112  0.0627 -0.2662 -1.7511
 4097TIP3    H229479   5.189   3.253   7.076  1.0298  1.3010  0.3959
 4098TIP3   OH229480   5.297   2.725   0.589 -0.0767  0.2831  0.1148
 4098TIP3    H129481   5.281   2.636   0.556  1.8914 -0.5969  1.3739
 4098TIP3    H229482   5.392   2.734   0.589 -0.2277  2.4795 -0.1045
 4099TIP3   OH229483   2.919   1.309   6.120  0.0461  0.0150  0.4108
 4099TIP3    H129484   2.858   1.261   6.064 -0.1217 -0.0673  0.6603
 4099TIP3    H229485   3.004   1.303   6.075 -0.1574  0.2552 -0.0111
 4100TIP3   OH229486   2.765   0.292   6.886 -0.6443  0.3593 -0.1603
 4100TIP3    H129487   2.687   0.265   6.934 -0.0739  0.0934  0.6440
 4100TIP3    H229488   2.740   0.287   6.794 -1.5516  0.2165  0.0877
 4101TIP3   OH229489   1.477   0.049   0.208  0.4779  0.4590  0.5597
 4101TIP3    H129490   1.464   0.144   0.205  1.6458  0.6458 -2.3646
 4101TIP3    H229491   1.572   0.038   0.211  0.4040 -0.5797 -0.3116
 4102TIP3   OH229492   1.964   0.963   0.025  0.0500  0.2531 -0.3058
 4102TIP3    H129493   1.954   0.868   0.026  0.1648  0.2038  1.8838
 4102TIP3    H229494   1.887   0.996  -0.022 -0.7001 -0.8611  0.1147
 4103TIP3   OH229495   4.491   4.293   1.678 -0.1711 -0.2524 -0.3354
 4103TIP3    H129496   4.453   4.266   1.595  0.1410  0.1812 -0.6193
 4103TIP3    H229497   4.574   4.246   1.683  1.2612  1.9440 -1.6779
 4104TIP3   OH229498   1.246   6.594   2.175 -0.4373  0.0323 -0.4737
 4104TIP3    H129499   1.301   6.655   2.126  0.2393  0.8998  1.2633
 4104TIP3    H229500   1.295   6.578   2.256 -2.1690 -0.1419  0.5990
 4105TIP3   OH229501   2.737   5.493   1.571 -0.0593  0.1144  0.2977
 4105TIP3    H129502   2.656   5.454   1.538 -0.0544  0.9144 -0.6953
 4105TIP3    H229503   2.713   5.583   1.592  0.7842  0.6641 -0.9694
 4106TIP3   OH229504   3.481   6.191   5.617  0.6460  0.2628 -0.2334
 4106TIP3    H129505   3.470   6.117   5.677  1.0685 -0.9966 -1.6512
 4106TIP3    H229506   3.414   6.254   5.644 -0.9485 -1.4015 -0.0972
 4107TIP3   OH229507   2.232   0.063   7.118 -0.2407  0.7439  0.1187
 4107TIP3    H129508   2.207   0.143   7.165  2.9256  0.0777  3.3323
 4107TIP3    H229509   2.193  -0.008   7.169  1.7427  0.0823  0.8118
 4108TIP3   OH229510   2.098   3.035   0.686  0.3707 -0.5116  0.2029
 4108TIP3    H129511   2.040   3.111   0.693 -0.8151 -1.4250  0.6202
 4108TIP3    H229512   2.140   3.028   0.772  1.7354  0.6056 -0.3335
 4109TIP3   OH229513   5.010   2.960   7.056 -0.1850  0.1569  0.0796
 4109TIP3    H129514   4.993   2.931   7.146  2.3393  0.6372  0.7941
 4109TIP3    H229515   5.088   3.016   7.063  0.6594 -0.5350 -2.5218
 4110TIP3   OH229516   5.406   1.997   6.798 -0.1662  0.0833 -0.5692
 4110TIP3    H129517   5.399   2.092   6.794  1.3760  0.3588  1.4577
 4110TIP3    H229518   5.496   1.981   6.828 -0.2085 -2.0356 -1.4158
 4111TIP3   OH229519   1.498   1.581   0.617  0.1411 -0.0585  0.0244
 4111TIP3    H129520   1.568   1.582   0.682  1.0955  0.3628 -0.9693
 4111TIP3    H229521   1.421   1.553   0.665  1.2832 -1.9848  0.8493
 4112TIP3   OH229522   0.633   0.156   6.841 -0.5941  0.0374  0.1822
 4112TIP3    H129523   0.588   0.209   6.775  0.0296  1.7503  1.0865
 4112TIP3    H229524   0.624   0.206   6.922 -1.7057 -2.2011  1.5590
 4113TIP3   OH229525   4.998   3.479   6.776 -0.2078 -0.0415 -0.0857
 4113TIP3    H129526   5.069   3.424   6.808  1.2252  2.0331  0.4854
 4113TIP3    H229527   4.937   3.484   6.849  0.3169  0.2150  0.3379
 4114TIP3   OH229528   4.727   3.978   0.467 -0.3721  0.2055 -0.2373
 4114TIP3    H129529   4.747   3.947   0.378 -0.7100 -1.5307  0.2494
 4114TIP3    H229530   4.772   3.915   0.524  0.4741  1.7398  0.8444
 4115TIP3   OH229531   0.553   2.891   6.718 -0.0233 -0.3196  0.0891
 4115TIP3    H129532   0.534   2.970   6.767 -0.3601 -0.7725  0.7011
 4115TIP3    H229533   0.642   2.905   6.684  0.2219 -0.0028  0.8395
 4116TIP3   OH229534   2.228   0.805   0.356  0.4442 -0.2797 -0.2799
 4116TIP3    H129535   2.160   0.769   0.299 -1.6145  0.6893  1.4171
 4116TIP3    H229536   2.269   0.874   0.303 -2.2497  1.4513 -0.3212
 4117TIP3   OH229537   6.122   3.723   1.637 -0.5046  0.2933  0.4690
 4117TIP3    H129538   6.105   3.738   1.730  0.1062  1.1872  0.4440
 4117TIP3    H229539   6.037   3.735   1.595 -0.7439  0.0718  0.8835
 4118TIP3   OH229540   5.122   4.366   7.694  0.4526 -0.7317  0.7421
 4118TIP3    H129541   5.162   4.429   7.755  2.2221  1.0034 -1.9669
 4118TIP3    H229542   5.096   4.420   7.619 -2.8228 -2.5616  0.4009
 4119TIP3   OH229543   1.672   6.061   6.962  0.3540  0.4608  0.0772
 4119TIP3    H129544   1.659   5.968   6.981 -0.5208  0.3815 -0.8351
 4119TIP3    H229545   1.767   6.074   6.972  0.2394  0.0114  2.4269
 4120TIP3   OH229546   0.031   3.355   5.696  0.0099  0.0872 -0.0179
 4120TIP3    H129547   0.107   3.358   5.754  0.4856 -0.7641 -0.5863
 4120TIP3    H229548  -0.040   3.320   5.751 -0.3676  2.1625  0.9067
 4121TIP3   OH229549   0.347   5.220   0.452  0.0320  0.5319 -0.2104
 4121TIP3    H129550   0.431   5.263   0.435 -0.3807  0.6098 -2.1771
 4121TIP3    H229551   0.286   5.259   0.390 -0.8661 -1.3487 -0.5841
 4122TIP3   OH229552   2.969   4.635   0.518 -0.3515  0.7503  0.1698
 4122TIP3    H129553   2.928   4.706   0.569 -1.9338 -0.8014  1.1713
 4122TIP3    H229554   3.050   4.616   0.566  0.1840  1.9914 -0.2188
 4123TIP3   OH229555   4.575   1.999   0.351  0.1123 -0.1677  0.1685
 4123TIP3    H129556   4.558   2.085   0.390 -1.1604 -0.2964 -0.0526
 4123TIP3    H229557   4.510   1.991   0.281  2.4291  0.0983 -2.1230
 4124TIP3   OH229558   3.879   6.500   1.407  0.4225  0.2665  0.8412
 4124TIP3    H129559   3.834   6.465   1.484 -0.5095  0.6449  0.4773
 4124TIP3    H229560   3.972   6.489   1.427  0.1886  0.1450  1.9200
 4125TIP3   OH229561   3.747   0.110   1.034 -0.0321  0.1204 -0.0786
 4125TIP3    H129562   3.714   0.021   1.022  1.0748 -0.1903 -0.8973
 4125TIP3    H229563   3.796   0.107   1.116  1.1657 -0.3887 -0.7948
 4126TIP3   OH229564   1.549   5.326   7.739 -0.1877 -0.5184 -0.5925
 4126TIP3    H129565   1.498   5.406   7.735  0.3757 -0.1832 -1.2315
 4126TIP3    H229566   1.592   5.329   7.825 -1.9882 -1.2904  0.3820
 4127TIP3   OH229567   3.221   6.241   7.310  0.2656 -0.2934  0.1617
 4127TIP3    H129568   3.196   6.329   7.340 -0.9448 -0.5724  0.0441
 4127TIP3    H229569   3.153   6.184   7.346  1.6672 -1.3644  1.2201
 4128TIP3   OH229570   4.132   6.314   1.857  0.5962  1.1393 -0.0990
 4128TIP3    H129571   4.226   6.336   1.855  1.3512 -1.6599 -0.6725
 4128TIP3    H229572   4.120   6.270   1.941  0.2151  0.0330 -0.7168
 4129TIP3   OH229573   3.849   1.935   1.489  0.3142  0.2730 -0.3682
 4129TIP3    H129574   3.776   1.925   1.428  0.4008  1.4176 -0.6897
 4129TIP3    H229575   3.815   1.906   1.573 -1.0448  2.2689 -0.1708
 4130TIP3   OH229576   5.610   3.839   7.108  0.1502  0.3473 -0.5513
 4130TIP3    H129577   5.593   3.751   7.076  1.5634  0.0029 -0.4239
 4130TIP3    H229578   5.690   3.866   7.063  1.1345  0.5770  1.2631
 4131TIP3   OH229579   2.796   0.791   5.485 -0.3132 -0.7348 -0.2011
 4131TIP3    H129580   2.720   0.747   5.523 -2.1288  1.2549 -1.3075
 4131TIP3    H229581   2.759   0.855   5.425  2.0973  2.3271  1.2920
 4132TIP3   OH229582   0.159   4.125   0.446  0.1837  0.4757 -0.0103
 4132TIP3    H129583   0.093   4.083   0.392 -0.5762  0.4439  0.9003
 4132TIP3    H229584   0.124   4.213   0.462  0.4906  0.5544  0.2472
 4133TIP3   OH229585   4.044   5.173   1.016 -0.3587 -0.2150  0.4602
 4133TIP3    H129586   4.006   5.222   0.942 -0.2636 -0.7954  0.0183
 4133TIP3    H229587   4.088   5.240   1.069  2.6765 -0.1362 -1.8632
 4134TIP3   OH229588   0.196   4.972   7.024 -0.0902 -0.3168 -0.2867
 4134TIP3    H129589   0.178   5.065   7.017  0.0868 -0.2743 -0.1751
 4134TIP3    H229590   0.258   4.964   7.096  0.2865 -0.4716 -0.6215
 4135TIP3   OH229591   3.575   3.360   2.363 -0.0226 -0.4026  0.0072
 4135TIP3    H129592   3.540   3.271   2.354  0.9895 -0.6264 -2.0736
 4135TIP3    H229593   3.515   3.402   2.425  0.7916 -3.1740  2.9551
 4136TIP3   OH229594   4.364   2.500   1.396 -0.0578 -0.2105 -0.2536
 4136TIP3    H129595   4.269   2.490   1.399 -0.1855  0.9754 -0.0907
 4136TIP3    H229596   4.396   2.449   1.470 -0.2884 -3.2746 -2.0965
 4137TIP3   OH229597   1.874   3.022   2.292  0.0768  0.1729  0.1503
 4137TIP3    H129598   1.901   2.941   2.335 -0.1776  0.2141  0.3886
 4137TIP3    H229599   1.883   3.089   2.360  2.5663  0.7683 -0.6848
 4138TIP3   OH229600   0.188   3.299   6.997  0.3662  0.3397 -0.2900
 4138TIP3    H129601   0.105   3.297   6.948  0.8268 -0.5497 -1.0746
 4138TIP3    H229602   0.254   3.272   6.933  1.2673  0.9918  0.3390
 4139TIP3   OH229603   0.066   4.395   1.562  0.5243  0.2634 -0.0662
 4139TIP3    H129604   0.095   4.485   1.555  0.5688  0.3813  1.2517
 4139TIP3    H229605   0.107   4.350   1.489 -1.6823  1.8160 -2.4470
 4140TIP3   OH229606   6.596   4.914   1.080  0.2176  0.3434  0.3739
 4140TIP3    H129607   6.582   4.933   0.988 -1.6625 -0.2873  0.4682
 4140TIP3    H229608   6.679   4.867   1.084  0.0411 -0.1096 -1.0666
 4141TIP3   OH229609   0.868   1.816   6.895  0.3513  0.1520  0.2002
 4141TIP3    H129610   0.921   1.794   6.819 -0.4811  1.0161 -0.6580
 4141TIP3    H229611   0.931   1.826   6.966  0.9870 -2.4161  0.0705
 4142TIP3   OH229612   4.447   1.585   7.470 -0.4695 -0.0179  0.7712
 4142TIP3    H129613   4.530   1.607   7.429 -0.7563  0.1129  0.2493
 4142TIP3    H229614   4.471   1.529   7.544  0.0842  0.0730  0.6665
 4143TIP3   OH229615   6.034   5.648   1.077 -0.3173  0.7334  0.4578
 4143TIP3    H129616   6.129   5.660   1.068 -0.6392  2.9206 -0.8383
 4143TIP3    H229617   6.019   5.647   1.171  1.0868 -0.8872  0.7072
 4144TIP3   OH229618   3.821   4.902   0.136 -0.3416  0.3984  0.3893
 4144TIP3    H129619   3.733   4.876   0.109 -0.6509  1.0728  0.7174
 4144TIP3    H229620   3.853   4.828   0.187 -0.7035  0.1306  0.2354
 4145TIP3   OH229621   6.511   6.015   7.339  0.9135 -0.0152  0.4505
 4145TIP3    H129622   6.438   5.972   7.383  1.9031 -2.7705 -0.3443
 4145TIP3    H229623   6.472   6.057   7.262 -0.0914  0.3961  1.1648
 4146TIP3   OH229624   6.001   4.943   1.459  0.8037  0.7101  0.2629
 4146TIP3    H129625   5.937   4.947   1.531  0.4544 -0.5484  0.0474
 4146TIP3    H229626   5.947   4.934   1.380  1.2212 -0.0513  0.0510
 4147TIP3   OH229627   3.004   6.432   5.669  0.1896 -0.4960  0.0959
 4147TIP3    H129628   2.987   6.505   5.610  0.5293 -1.0432 -0.6965
 4147TIP3    H229629   2.989   6.354   5.616  3.2264 -1.0357 -0.1591
 4148TIP3   OH229630   0.106   0.309   6.738  0.3944 -0.6177 -0.0304
 4148TIP3    H129631   0.092   0.236   6.678 -0.3715  0.9273 -1.7977
 4148TIP3    H229632   0.019   0.346   6.752  0.7265 -0.2112  1.1177
 4149TIP3   OH229633   5.031   5.272   6.993 -0.2527  0.8422 -0.5189
 4149TIP3    H129634   4.943   5.298   6.965 -1.5325 -2.0074  0.4624
 4149TIP3    H229635   5.050   5.194   6.941  0.1638 -0.6153  1.6997
 4150TIP3   OH229636   0.740   1.953   2.363 -0.9205  0.0733 -0.0904
 4150TIP3    H129637   0.760   1.941   2.456  3.4458  1.6399 -0.6001
 4150TIP3    H229638   0.778   2.038   2.341 -0.4676 -0.8794 -3.5946
 4151TIP3   OH229639   1.460   2.170   7.653 -0.2865 -0.0003 -0.4713
 4151TIP3    H129640   1.455   2.234   7.724 -0.1689 -0.6922  0.1783
 4151TIP3    H229641   1.392   2.197   7.592  0.9467  1.8046 -1.1233
 4152TIP3   OH229642   2.974   0.245   5.780  0.1614  1.0437 -0.1007
 4152TIP3    H129643   3.067   0.245   5.803 -0.2135  1.4606  1.5651
 4152TIP3    H229644   2.935   0.308   5.840 -1.4875 -0.5193  0.5615
 4153TIP3   OH229645   2.654   5.103   0.780  0.3956  0.1656 -0.1323
 4153TIP3    H129646   2.625   5.189   0.809  0.6073  0.0815  0.3366
 4153TIP3    H229647   2.715   5.074   0.848 -0.9944 -1.0985  0.6292
 4154TIP3   OH229648   6.192   5.704   2.278  0.3038  0.0631  0.3714
 4154TIP3    H129649   6.221   5.618   2.249 -0.4542  0.3810 -1.4514
 4154TIP3    H229650   6.271   5.758   2.275  0.5732 -0.3179  0.5393
 4155TIP3   OH229651   0.280   2.027   7.007 -0.2778 -0.0139 -0.2785
 4155TIP3    H129652   0.196   1.988   7.031  0.5227 -2.2410 -0.7998
 4155TIP3    H229653   0.330   2.028   7.088  0.4650 -2.2807 -0.6341
 4156TIP3   OH229654   5.204   3.921   1.964  0.0817  0.6936  0.0382
 4156TIP3    H129655   5.223   3.970   2.044  1.4269  0.7464 -0.2879
 4156TIP3    H229656   5.110   3.900   1.970  0.0189  1.2492  1.3061
 4157TIP3   OH229657   1.966   2.023   7.714 -0.0946 -0.0939  0.3202
 4157TIP3    H129658   1.978   2.116   7.730 -1.2515  0.0990  0.1156
 4157TIP3    H229659   2.053   1.992   7.686  0.9377  0.3989  2.7142
 4158TIP3   OH229660   3.212   6.073   6.558  0.2377 -0.4029 -0.3359
 4158TIP3    H129661   3.245   6.160   6.534 -2.4837  0.0191 -3.2927
 4158TIP3    H229662   3.283   6.013   6.536  1.0278  0.8588 -1.3334
 4159TIP3   OH229663   2.189   6.531   7.361 -0.5448 -0.4238 -0.4832
 4159TIP3    H129664   2.254   6.578   7.412 -1.1977  0.7648 -0.7094
 4159TIP3    H229665   2.233   6.451   7.333  0.8176  0.3624 -0.6422
 4160TIP3   OH229666   0.864   2.730   2.313  0.3895  0.6364  0.2858
 4160TIP3    H129667   0.922   2.704   2.385  0.4009 -1.2288 -0.3587
 4160TIP3    H229668   0.777   2.708   2.344  0.2235  1.3164  0.3315
 4161TIP3   OH229669   3.646   3.764   1.521 -0.1184  0.5721  0.2656
 4161TIP3    H129670   3.709   3.825   1.559  1.8683 -2.0228  1.4891
 4161TIP3    H229671   3.609   3.718   1.596  0.6549 -1.6908 -0.6574
 4162TIP3   OH229672   1.190   2.599   6.151  0.7042  0.3489 -0.3237
 4162TIP3    H129673   1.208   2.532   6.216 -1.9395  0.9245  1.1261
 4162TIP3    H229674   1.126   2.559   6.092  1.3736  0.6252 -1.2820
 4163TIP3   OH229675   2.762   2.276   5.010  0.0251  0.1147  0.0694
 4163TIP3    H129676   2.776   2.191   4.967 -1.3107 -0.5416  0.8590
 4163TIP3    H229677   2.675   2.303   4.982  0.3015  1.0813  0.1029
 4164TIP3   OH229678   4.905   6.497   6.869  0.3121 -0.2544 -0.1150
 4164TIP3    H129679   4.906   6.482   6.963  0.4303 -1.8769 -0.3390
 4164TIP3    H229680   4.995   6.524   6.848  0.1472  0.6473  0.2947
 4165TIP3   OH229681   5.137   2.929   6.491 -0.0772  0.2473 -0.3285
 4165TIP3    H129682   5.062   2.896   6.442  0.9689 -3.4505  0.2448
 4165TIP3    H229683   5.103   2.943   6.580 -0.3833 -0.1122 -0.3876
 4166TIP3   OH229684   4.720   6.406   6.668  0.2334 -0.0085  0.4313
 4166TIP3    H129685   4.809   6.418   6.700  0.3526 -1.6239  0.7731
 4166TIP3    H229686   4.680   6.345   6.730 -0.3686 -1.1141 -0.9794
 4167TIP3   OH229687   3.176   0.404   0.591  0.4569 -0.1775 -0.0614
 4167TIP3    H129688   3.220   0.391   0.674 -0.7934 -1.2316  0.4670
 4167TIP3    H229689   3.219   0.344   0.531  2.2833  1.5525 -0.5888
 4168TIP3   OH229690   3.968   5.834   7.053  0.9021 -0.4000  0.6219
 4168TIP3    H129691   3.972   5.918   7.098  1.4732  0.6034 -1.2088
 4168TIP3    H229692   4.030   5.778   7.100 -1.0411 -0.5439  3.1942
 4169TIP3   OH229693   1.196   3.501   0.664  0.4160  0.5496  0.0808
 4169TIP3    H129694   1.174   3.479   0.755  0.8178  0.3691  0.1341
 4169TIP3    H229695   1.191   3.596   0.660  0.9222  0.5898  0.4249
 4170TIP3   OH229696   0.161   0.030   7.418 -0.8120  0.2338  0.5255
 4170TIP3    H129697   0.144  -0.043   7.358 -0.3915 -2.5659  3.4967
 4170TIP3    H229698   0.256   0.041   7.418 -0.8260  0.3562  0.5181
 4171TIP3   OH229699   3.599   1.195   0.806 -0.0551  0.0649 -0.4202
 4171TIP3    H129700   3.605   1.110   0.762 -1.3807 -1.0699  1.4445
 4171TIP3    H229701   3.585   1.258   0.735  2.6057 -0.9575 -2.0190
 4172TIP3   OH229702   1.997   5.396   6.950 -0.2945  0.1318 -0.0718
 4172TIP3    H129703   1.999   5.328   6.882 -0.9978 -1.0419  1.0298
 4172TIP3    H229704   2.037   5.472   6.909  0.0072 -0.7766 -1.5443
 4173TIP3   OH229705   6.315   1.175   5.753  0.0004 -0.3235  0.1569
 4173TIP3    H129706   6.408   1.169   5.776  0.4159 -0.8978 -1.5155
 4173TIP3    H229707   6.279   1.089   5.776  0.5023 -1.0362 -1.5835
 4174TIP3   OH229708   6.577   1.194   5.813 -0.1831  0.3084  0.0347
 4174TIP3    H129709   6.584   1.141   5.893 -0.4985  0.6046  0.2602
 4174TIP3    H229710   6.652   1.254   5.817  1.1289 -1.1809 -1.0237
 4175TIP3   OH229711   2.200   4.011   0.194 -0.3680  0.1997 -0.2029
 4175TIP3    H129712   2.284   4.008   0.239 -0.3194  1.0337 -0.2296
 4175TIP3    H229713   2.191   3.923   0.156  0.1540 -0.1224  0.3888
 4176TIP3   OH229714   3.003   1.773   6.503  0.1234 -0.1625  0.9512
 4176TIP3    H129715   3.094   1.743   6.511 -0.3261 -2.7893 -1.8276
 4176TIP3    H229716   2.953   1.693   6.491 -2.5663  1.2598  2.0221
 4177TIP3   OH229717   3.619   5.893   1.096  0.0672 -0.4600 -0.0402
 4177TIP3    H129718   3.581   5.981   1.097  4.0152  1.4280  1.6081
 4177TIP3    H229719   3.603   5.858   1.184  0.6538 -0.3442  0.1159
 4178TIP3   OH229720   4.525   2.228   0.491  0.1973  0.0100  0.2080
 4178TIP3    H129721   4.573   2.198   0.569  1.8799 -0.1676 -0.8287
 4178TIP3    H229722   4.542   2.322   0.487  2.1188 -0.3152 -1.1453
 4179TIP3   OH229723   2.773   1.411   7.731 -0.1379  0.3933 -0.0800
 4179TIP3    H129724   2.781   1.317   7.711 -0.9932  0.3797 -0.4042
 4179TIP3    H229725   2.852   1.431   7.782  0.1131 -0.4769 -0.1000
 4180TIP3   OH229726   3.906   4.134   6.577  0.2379 -0.1327  0.1233
 4180TIP3    H129727   3.866   4.063   6.628 -0.4326  1.7043  2.3177
 4180TIP3    H229728   3.872   4.122   6.489 -3.5124  0.0004  1.3897
 4181TIP3   OH229729   0.533   6.275   1.634 -0.6743  0.6567 -0.2330
 4181TIP3    H129730   0.481   6.214   1.581  0.8614  1.5309 -2.9997
 4181TIP3    H229731   0.481   6.355   1.636 -0.9561  0.4691  0.0071
 4182TIP3   OH229732   2.170   0.699   2.432 -0.2692 -0.0733  0.2438
 4182TIP3    H129733   2.212   0.614   2.420  0.3332  0.0963  1.0696
 4182TIP3    H229734   2.242   0.762   2.437 -0.7318  0.6126 -1.1239
 4183TIP3   OH229735   5.297   0.378   0.364 -0.1069 -0.4349 -0.1084
 4183TIP3    H129736   5.246   0.391   0.444 -0.4643 -0.3464 -0.3513
 4183TIP3    H229737   5.254   0.306   0.319 -1.0749  0.7421 -1.1552
 4184TIP3   OH229738   4.698   1.749   5.766  0.3738  0.0907  0.0674
 4184TIP3    H129739   4.760   1.730   5.696  0.9654 -0.9196  0.8339
 4184TIP3    H229740   4.621   1.695   5.746  0.5313 -0.1752  0.1710
 4185TIP3   OH229741   2.035   4.921   5.747 -0.2406  0.2309 -0.0849
 4185TIP3    H129742   2.031   5.013   5.775 -2.3966  0.1166  0.1001
 4185TIP3    H229743   1.962   4.879   5.791  1.2821 -1.8427  0.6146
 4186TIP3   OH229744   1.708   5.168   7.562  0.0123 -0.9539 -0.3150
 4186TIP3    H129745   1.691   5.192   7.471 -0.0559 -0.4551 -0.1758
 4186TIP3    H229746   1.637   5.209   7.611  1.5223  1.1265  0.2652
 4187TIP3   OH229747   4.218   6.422   0.170 -0.3349  0.0751 -0.1946
 4187TIP3    H129748   4.215   6.515   0.193 -0.1678 -0.2761  1.3964
 4187TIP3    H229749   4.218   6.421   0.074 -2.0284  1.6479 -0.2711
 4188TIP3   OH229750   2.506   1.551   6.363  0.2919  0.2953  0.3126
 4188TIP3    H129751   2.435   1.610   6.338 -0.6493 -0.1577  1.7814
 4188TIP3    H229752   2.533   1.510   6.281 -1.0032  0.6349 -0.3149
 4189TIP3   OH229753   0.256   5.807   0.939  0.1789 -0.0009  0.2947
 4189TIP3    H129754   0.301   5.862   1.003 -0.3150  1.0721 -0.2524
 4189TIP3    H229755   0.169   5.845   0.931 -0.4413 -1.3275  0.4424
 4190TIP3   OH229756   5.435   4.015   6.246  0.1422 -0.1103 -1.0776
 4190TIP3    H129757   5.466   3.997   6.158 -0.3731  1.1802 -1.5558
 4190TIP3    H229758   5.432   4.111   6.251  0.7392 -0.1484  0.5510
 4191TIP3   OH229759   5.062   4.329   0.290  0.2787 -0.2395  0.0456
 4191TIP3    H129760   5.108   4.387   0.230  0.6428  0.2516  0.7855
 4191TIP3    H229761   5.050   4.247   0.241  4.3851 -1.4211  0.6836
 4192TIP3   OH229762   6.454   3.421   1.276  0.7312 -0.3920 -0.2689
 4192TIP3    H129763   6.529   3.369   1.306  2.3500  0.8664 -1.8548
 4192TIP3    H229764   6.485   3.462   1.195 -2.4647 -1.6127 -2.3205
 4193TIP3   OH229765   2.810   2.938   6.942  0.3173 -0.0535 -0.1600
 4193TIP3    H129766   2.743   2.986   6.990  0.8215  2.1371 -1.5333
 4193TIP3    H229767   2.769   2.917   6.858  1.3935  1.6764 -1.1816
 4194TIP3   OH229768   4.694   5.023   6.172  0.3241 -0.5134  0.5195
 4194TIP3    H129769   4.742   5.003   6.092 -1.6662 -2.3595 -0.3075
 4194TIP3    H229770   4.637   5.095   6.149  0.3144 -0.5194  0.5254
 4195TIP3   OH229771   3.557   2.187   2.735  0.6291 -0.0962 -0.3093
 4195TIP3    H129772   3.645   2.192   2.774  0.9383 -0.5859 -0.9268
 4195TIP3    H229773   3.555   2.102   2.693 -0.3150 -0.2732  0.0801
 4196TIP3   OH229774   6.310   1.253   2.194 -0.2397 -0.3050  0.4772
 4196TIP3    H129775   6.367   1.258   2.271  1.1249 -1.3562 -0.4147
 4196TIP3    H229776   6.358   1.299   2.126 -0.9582 -0.2827 -0.0277
 4197TIP3   OH229777   4.027   2.808   6.267  0.5691 -0.6817  0.1620
 4197TIP3    H129778   4.088   2.832   6.337 -0.0468 -0.5186  0.6592
 4197TIP3    H229779   4.079   2.756   6.206  1.2891 -0.2484  0.3937
 4198TIP3   OH229780   0.013   3.945   0.296 -0.0998  0.1776  0.2421
 4198TIP3    H129781  -0.058   3.882   0.306  1.7436 -2.3599 -1.4174
 4198TIP3    H229782  -0.004   3.988   0.213  1.0505 -1.6526 -1.0227
 4199TIP3   OH229783   2.009   1.888   4.625  0.1538  0.3463  0.0411
 4199TIP3    H129784   2.058   1.820   4.672  1.5050  1.2678  0.0105
 4199TIP3    H229785   1.923   1.889   4.668  1.0257  0.4929  1.8592
 4200TIP3   OH229786   5.291   3.696   0.739 -0.0705  0.3023 -0.5016
 4200TIP3    H129787   5.267   3.749   0.663 -1.9110  0.4443  0.1047
 4200TIP3    H229788   5.317   3.761   0.805  0.3403  0.2678 -0.6328
 4201TIP3   OH229789   0.186   0.613   7.136  0.0526 -0.3397  0.1653
 4201TIP3    H129790   0.172   0.634   7.228  1.7367 -0.5561  0.4982
 4201TIP3    H229791   0.112   0.655   7.091 -1.3131 -1.0013  1.6756
 4202TIP3   OH229792   2.486   1.347   6.943 -0.4477 -0.4015 -0.0300
 4202TIP3    H129793   2.465   1.439   6.927  2.3612  0.5482  1.1241
 4202TIP3    H229794   2.568   1.333   6.895 -0.0163 -1.8198  1.0747
 4203TIP3   OH229795   3.513   2.167   5.567 -0.1649 -0.0788  0.2320
 4203TIP3    H129796   3.433   2.181   5.618 -0.1938 -0.4423  0.2918
 4203TIP3    H229797   3.526   2.072   5.569 -0.1771 -0.0964 -0.4614
 4204TIP3   OH229798   2.362   5.258   7.600 -0.2408 -0.0170 -0.4577
 4204TIP3    H129799   2.392   5.346   7.578 -0.1508  0.0016 -0.2629
 4204TIP3    H229800   2.365   5.210   7.517  1.2836 -0.3033 -0.2606
 4205TIP3   OH229801   2.807   5.889   6.298  0.5648  0.3780  0.3688
 4205TIP3    H129802   2.800   5.931   6.213  0.2571  0.1662  0.2904
 4205TIP3    H229803   2.788   5.959   6.361  1.2885  0.6590  0.2911
 4206TIP3   OH229804   1.059   2.588   2.203 -0.1778  0.0999 -0.0106
 4206TIP3    H129805   0.997   2.652   2.237 -1.2490  0.3195 -2.2122
 4206TIP3    H229806   1.015   2.503   2.213  0.1952 -0.0328  0.5972
 4207TIP3   OH229807   3.648   5.869   6.304  0.5765 -0.1109 -0.1618
 4207TIP3    H129808   3.661   5.948   6.253  0.5808 -1.0458 -1.6641
 4207TIP3    H229809   3.565   5.834   6.273 -0.2459  0.1165  1.6387
 4208TIP3   OH229810   1.366   6.518   1.077 -0.0433 -0.0946 -0.2600
 4208TIP3    H129811   1.320   6.434   1.073 -1.6544  0.7678 -2.6735
 4208TIP3    H229812   1.354   6.556   0.990  0.4321  2.7441  0.7916
 4209TIP3   OH229813   4.986   1.838   6.997  0.2099 -0.0834 -0.3576
 4209TIP3    H129814   4.922   1.768   6.985  0.1294 -0.3052  1.2518
 4209TIP3    H229815   5.032   1.843   6.913 -0.5567 -1.2801 -0.8701
 4210TIP3   OH229816   1.364   4.843   0.059 -0.2930  0.8310 -0.4362
 4210TIP3    H129817   1.304   4.917   0.053 -0.9348  0.4336  0.7675
 4210TIP3    H229818   1.402   4.849   0.146 -0.2444 -0.1633 -0.3713
 4211TIP3   OH229819   5.214   1.782   1.173  0.5143 -0.2851 -0.5343
 4211TIP3    H129820   5.280   1.728   1.217 -1.2416 -1.1587  1.2040
 4211TIP3    H229821   5.179   1.725   1.104  1.9704  0.4156 -1.9026
 4212TIP3   OH229822   2.953   4.548   2.432 -0.3919 -0.0193  0.4409
 4212TIP3    H129823   3.034   4.588   2.401 -1.2219  1.2603 -0.1550
 4212TIP3    H229824   2.890   4.620   2.434 -1.4441 -0.9273  1.1750
 4213TIP3   OH229825   5.375   4.171   0.124  0.2106 -0.2414  0.2029
 4213TIP3    H129826   5.432   4.209   0.190 -0.8800  0.5141  0.7360
 4213TIP3    H229827   5.293   4.153   0.170 -1.0569  1.5648 -1.2065
 4214TIP3   OH229828   0.635   3.515   1.224 -0.1404 -0.6711 -0.1400
 4214TIP3    H129829   0.727   3.532   1.246 -0.8991  3.1733  0.8689
 4214TIP3    H229830   0.596   3.486   1.307 -0.4835  1.4322  0.5034
 4215TIP3   OH229831   2.193   3.114   7.478 -0.4072  0.5853  0.8068
 4215TIP3    H129832   2.239   3.198   7.473  0.7176  0.0099  1.0093
 4215TIP3    H229833   2.106   3.136   7.511  0.0649  1.6170  1.4302
 4216TIP3   OH229834   1.390   4.080   0.540  0.3902  0.4227 -0.0343
 4216TIP3    H129835   1.406   4.152   0.601 -2.1350  0.7615  0.3105
 4216TIP3    H229836   1.295   4.072   0.536  0.5619 -1.7154 -1.4822
 4217TIP3   OH229837   5.199   5.361   6.396  0.4368 -0.4803  0.4809
 4217TIP3    H129838   5.158   5.289   6.348 -1.7478 -0.5703  2.3241
 4217TIP3    H229839   5.276   5.321   6.438  1.7155 -0.6601 -1.8721
 4218TIP3   OH229840   1.241   1.538   2.051 -0.1123  0.1858 -0.0141
 4218TIP3    H129841   1.239   1.633   2.038  1.8403  0.0916 -1.3626
 4218TIP3    H229842   1.232   1.501   1.963  1.9636 -0.7917  0.1260
 4219TIP3   OH229843   0.720   2.826   7.029 -0.3251  0.0084  0.3989
 4219TIP3    H129844   0.711   2.732   7.010  2.5598 -0.3402  0.3248
 4219TIP3    H229845   0.719   2.867   6.942  1.1652 -0.3155  0.1906
 4220TIP3   OH229846   0.844   4.826   0.655 -0.5638 -0.2054  0.5860
 4220TIP3    H129847   0.804   4.816   0.569 -2.3532 -3.1726  1.6227
 4220TIP3    H229848   0.790   4.892   0.699 -1.5031 -0.8095  0.3783
 4221TIP3   OH229849   3.584   1.955   1.343  0.2185  0.1241 -0.2662
 4221TIP3    H129850   3.544   1.880   1.388 -1.6437  0.7350 -0.8144
 4221TIP3    H229851   3.585   2.024   1.409  0.9909 -0.0732 -0.0641
 4222TIP3   OH229852   5.474   2.106   5.597  0.0732  0.0726 -0.2888
 4222TIP3    H129853   5.542   2.118   5.663  1.6468  0.0749 -1.8520
 4222TIP3    H229854   5.409   2.173   5.617  1.7164  1.6922 -0.1902
 4223TIP3   OH229855   5.709   1.977   1.345  0.3305 -0.2041 -0.2739
 4223TIP3    H129856   5.709   2.060   1.297 -0.8662  0.8244  1.4198
 4223TIP3    H229857   5.619   1.946   1.339  1.1006 -2.3837 -2.4086
 4224TIP3   OH229858   0.711   2.016   1.957  0.4015 -0.3722 -0.5486
 4224TIP3    H129859   0.730   2.071   2.034  1.4832 -0.1101 -0.9768
 4224TIP3    H229860   0.797   1.983   1.930 -0.0915 -1.2776 -1.0502
 4225TIP3   OH229861   6.490   3.359   1.993  0.4623  0.4825  0.6997
 4225TIP3    H129862   6.527   3.310   1.920  1.7128  1.7675  0.4417
 4225TIP3    H229863   6.444   3.293   2.045  1.4398 -0.8200 -0.0400
 4226TIP3   OH229864   3.309   5.588   1.541 -0.0668 -0.0882  0.0577
 4226TIP3    H129865   3.337   5.501   1.566 -2.1178 -0.9941 -0.5764
 4226TIP3    H229866   3.213   5.587   1.550 -0.2395  1.7961 -0.8224
 4227TIP3   OH229867   4.827   6.290   0.024 -0.3765  0.1667 -0.7007
 4227TIP3    H129868   4.857   6.369  -0.022 -1.2364  0.2827 -1.0896
 4227TIP3    H229869   4.777   6.323   0.098  1.0357 -0.0226  0.3883
 4228TIP3   OH229870   3.539   1.399   6.173 -0.1190 -0.3861  0.5487
 4228TIP3    H129871   3.561   1.482   6.132  3.0263 -1.6604 -0.6357
 4228TIP3    H229872   3.448   1.384   6.148  0.7707  0.1709 -3.9926
 4229TIP3   OH229873   1.196   3.122   6.255 -0.1554  0.0410  0.3655
 4229TIP3    H129874   1.149   3.041   6.237 -1.1134  1.0038 -1.9345
 4229TIP3    H229875   1.143   3.190   6.212  1.5284  1.6514  0.7049
 4230TIP3   OH229876   2.162   2.378   1.485  0.0811 -0.1965  0.3152
 4230TIP3    H129877   2.215   2.305   1.455 -0.7531 -0.8811  0.4746
 4230TIP3    H229878   2.170   2.444   1.415 -1.2645 -1.4783 -1.1292
 4231TIP3   OH229879   0.654   1.657   0.839  0.3714  0.3059  0.3124
 4231TIP3    H129880   0.617   1.646   0.752 -1.3869 -1.5741  1.2098
 4231TIP3    H229881   0.655   1.752   0.853  1.2993  0.6963 -1.9270
 4232TIP3   OH229882   4.713   3.827   7.394  0.1857  0.3332 -1.0079
 4232TIP3    H129883   4.656   3.824   7.471 -0.0862  0.4220 -1.2048
 4232TIP3    H229884   4.802   3.820   7.430  0.0850  0.8617 -0.6463
 4233TIP3   OH229885   6.094   4.854   6.363 -0.0109 -0.0783  0.4537
 4233TIP3    H129886   6.096   4.950   6.364  2.0430 -0.0436 -0.5554
 4233TIP3    H229887   6.001   4.832   6.359 -0.5062  1.9284 -1.0589
 4234TIP3   OH229888   4.955   3.991   6.012  0.8067  0.6185  0.2594
 4234TIP3    H129889   5.028   3.993   6.075  1.7090  1.5431 -0.7700
 4234TIP3    H229890   4.976   3.918   5.954 -0.3014 -0.5810  1.2826
 4235TIP3   OH229891   0.527   3.105   2.267 -0.5542  0.3683 -0.3785
 4235TIP3    H129892   0.489   3.160   2.198 -1.6091 -0.5401 -0.5562
 4235TIP3    H229893   0.559   3.027   2.221  0.8719  0.7762 -0.1246
 4236TIP3   OH229894   1.543   6.147   2.158  0.0296 -0.5438 -0.1792
 4236TIP3    H129895   1.604   6.080   2.189  1.0062 -0.3559 -1.6438
 4236TIP3    H229896   1.468   6.139   2.217 -0.5947 -4.0211 -1.2127
 4237TIP3   OH229897   0.627   1.537   0.230  0.3068 -0.0021 -0.0806
 4237TIP3    H129898   0.656   1.542   0.321 -2.0965  0.8165  0.7154
 4237TIP3    H229899   0.539   1.577   0.231 -1.2701 -3.0755 -2.0827
 4238TIP3   OH229900   6.526   0.788   6.094 -0.1451 -0.4304 -0.3897
 4238TIP3    H129901   6.549   0.697   6.113  0.2946 -0.2538 -0.0337
 4238TIP3    H229902   6.431   0.792   6.105 -0.0922 -0.7086  0.2310
 4239TIP3   OH229903   1.258   3.717   1.673  0.2649 -0.1607  0.3428
 4239TIP3    H129904   1.219   3.761   1.598  1.4634  1.1334  0.4356
 4239TIP3    H229905   1.203   3.742   1.747  0.1268  0.0387  0.1749
 4240TIP3   OH229906   4.100   1.929   0.637  0.1469 -0.2852  0.4848
 4240TIP3    H129907   4.089   1.936   0.731  1.8134  0.4588  0.6628
 4240TIP3    H229908   4.127   1.838   0.623  0.0113 -0.3654  0.7349
 4241TIP3   OH229909   4.152   5.759   0.267 -0.0771  0.4243  0.0577
 4241TIP3    H129910   4.166   5.767   0.172  0.3001 -0.5888  0.0124
 4241TIP3    H229911   4.230   5.797   0.306 -0.4697  1.3282 -0.0156
 4242TIP3   OH229912   1.569   0.033   5.708 -0.2482 -0.3926 -0.6342
 4242TIP3    H129913   1.657   0.047   5.742 -0.1912 -0.5618 -0.7088
 4242TIP3    H229914   1.543  -0.053   5.742 -0.1579 -0.5994 -1.0763
 4243TIP3   OH229915   1.667   2.617   2.515  0.2071 -0.1307 -0.1470
 4243TIP3    H129916   1.709   2.626   2.430  2.8487 -0.5518  1.0132
 4243TIP3    H229917   1.646   2.707   2.541  1.4124  0.2232 -0.3333
 4244TIP3   OH229918   0.233   4.898   7.340 -0.2160  0.5641 -0.4563
 4244TIP3    H129919   0.179   4.952   7.282 -1.5126 -0.0438  0.1334
 4244TIP3    H229920   0.322   4.909   7.307 -0.6275  1.9521 -1.1936
 4245TIP3   OH229921   1.646   6.173   1.915 -0.0037  0.2973 -0.3811
 4245TIP3    H129922   1.572   6.144   1.861 -0.9778  0.2408  0.9434
 4245TIP3    H229923   1.623   6.146   2.004  2.8229 -2.0801 -0.2387
 4246TIP3   OH229924   0.113   3.013   0.193 -0.6957  0.1867 -0.1976
 4246TIP3    H129925   0.043   3.078   0.190 -1.3276 -0.5113 -1.3119
 4246TIP3    H229926   0.122   2.983   0.103  0.7012 -0.1095  0.0104
 4247TIP3   OH229927   4.835   3.535   1.296 -0.6719 -0.0592  0.0287
 4247TIP3    H129928   4.835   3.565   1.205 -2.3264 -1.0298 -0.3239
 4247TIP3    H229929   4.798   3.609   1.345 -1.5044 -0.2039 -0.3598
 4248TIP3   OH229930   4.729   4.803   1.808 -0.5080 -0.3738 -0.2441
 4248TIP3    H129931   4.668   4.833   1.741 -1.1959 -1.9734 -0.3914
 4248TIP3    H229932   4.778   4.732   1.767  1.3799  0.7494 -0.0627
 4249TIP3   OH229933   1.559   3.909   1.247 -0.3401 -0.0324 -0.0033
 4249TIP3    H129934   1.625   3.842   1.260  0.8175  1.4027  1.9736
 4249TIP3    H229935   1.606   3.982   1.206 -0.5193  1.2135  1.9113
 4250TIP3   OH229936   6.041   4.084   7.630  0.3983 -0.3504  0.1699
 4250TIP3    H129937   6.116   4.043   7.672  0.5411  0.4623  0.7407
 4250TIP3    H229938   6.074   4.167   7.597 -0.1853 -0.1031  0.1896
 4251TIP3   OH229939   2.690   6.370   6.467 -0.0236 -0.4928 -0.3974
 4251TIP3    H129940   2.644   6.424   6.403  0.7395 -0.2516 -0.7496
 4251TIP3    H229941   2.740   6.433   6.519 -1.4244 -0.5667  1.1241
 4252TIP3   OH229942   1.253   6.620   0.655 -0.1996 -0.2347  0.6400
 4252TIP3    H129943   1.337   6.574   0.666 -0.5978 -0.8045  1.3837
 4252TIP3    H229944   1.278   6.707   0.625  0.7724  0.1485  2.4106
 4253TIP3   OH229945   3.478   6.328   6.240  0.4457 -0.5641 -0.0663
 4253TIP3    H129946   3.473   6.364   6.151  0.3784 -1.4600 -0.4331
 4253TIP3    H229947   3.429   6.246   6.235 -5.1107  2.0537  2.2196
 4254TIP3   OH229948   0.408   5.817   1.990 -0.3889  0.0816  0.0899
 4254TIP3    H129949   0.497   5.808   1.956 -0.1578  1.3702  0.3123
 4254TIP3    H229950   0.374   5.727   1.991  1.0178 -0.4761  0.3156
 4255TIP3   OH229951   5.705   6.089   1.800  0.0856  0.5179 -0.0258
 4255TIP3    H129952   5.656   6.010   1.777  0.7380 -0.4040  1.5269
 4255TIP3    H229953   5.679   6.108   1.890  1.2221  1.0440  0.2152
 4256TIP3   OH229954   1.558   1.482   1.866 -0.1934 -0.0889  0.8129
 4256TIP3    H129955   1.578   1.575   1.870  0.8560 -0.2944  0.7039
 4256TIP3    H229956   1.590   1.454   1.780 -1.4009 -0.3610  0.4286
 4257TIP3   OH229957   0.808   1.457   5.625 -0.1860  0.2685 -0.0095
 4257TIP3    H129958   0.853   1.414   5.552 -0.0270 -1.1181  0.8740
 4257TIP3    H229959   0.780   1.385   5.681 -0.6065  1.2976  1.1365
 4258TIP3   OH229960   1.003   3.439   0.450  0.0207 -0.1734 -0.6886
 4258TIP3    H129961   1.055   3.476   0.521  1.2882 -0.8118 -1.2601
 4258TIP3    H229962   0.933   3.390   0.494  0.8338 -0.6278  0.1225
 4259TIP3   OH229963   0.251   1.067   5.834  0.4758 -0.3769  0.5647
 4259TIP3    H129964   0.321   1.055   5.769  0.5127 -0.3185  0.5934
 4259TIP3    H229965   0.252   1.161   5.853 -1.5908  0.1884 -1.6561
 4260TIP3   OH229966   6.187   2.976   0.828 -0.0866  0.3730  0.5626
 4260TIP3    H129967   6.175   3.066   0.800 -1.9964 -0.0984 -0.3124
 4260TIP3    H229968   6.098   2.941   0.835  0.6225 -1.7088 -0.0621
 4261TIP3   OH229969   0.045   2.727   6.285 -0.0498 -0.5865  0.3830
 4261TIP3    H129970   0.065   2.663   6.353  0.6697 -0.2933  0.4585
 4261TIP3    H229971  -0.050   2.721   6.274 -0.3575  0.1599  2.2104
 4262TIP3   OH229972   1.935   2.584   5.813 -0.1496  0.9214 -0.3651
 4262TIP3    H129973   1.995   2.658   5.820  0.8211  0.0084  1.7371
 4262TIP3    H229974   1.848   2.623   5.825  0.3681  1.7152  1.0182
 4263TIP3   OH229975   1.829   5.691   5.588  0.2431 -0.3145 -0.0173
 4263TIP3    H129976   1.769   5.618   5.571 -2.7971  1.7202  1.0972
 4263TIP3    H229977   1.901   5.652   5.637 -1.6160 -2.4760  1.2057
 4264TIP3   OH229978   4.178   1.369   0.917  0.3714 -0.5093 -0.2951
 4264TIP3    H129979   4.147   1.390   1.005 -1.0476  0.8229 -1.0629
 4264TIP3    H229980   4.272   1.354   0.927  0.3630  0.3650  1.3207
 4265TIP3   OH229981   2.075   3.141   5.861 -0.3983  0.3417 -0.0600
 4265TIP3    H129982   1.993   3.098   5.888  0.0435 -1.4180 -1.3513
 4265TIP3    H229983   2.047   3.206   5.796 -0.9258  0.9644  0.7718
 4266TIP3   OH229984   3.363   4.500   6.993  0.1082  0.2966  0.2800
 4266TIP3    H129985   3.406   4.454   6.921  1.4349  3.7929 -1.4095
 4266TIP3    H229986   3.429   4.504   7.062  0.5918  0.9272 -0.1967
 4267TIP3   OH229987   5.150   6.518   0.100 -0.1175  0.2633 -0.1864
 4267TIP3    H129988   5.062   6.552   0.116  0.1920  0.6631  0.7018
 4267TIP3    H229989   5.136   6.425   0.080 -0.8437  0.5918 -1.3347
 4268TIP3   OH229990   2.641   4.808   6.234 -0.5266 -0.0246  0.4351
 4268TIP3    H129991   2.638   4.880   6.170 -1.9656 -0.1827  0.3050
 4268TIP3    H229992   2.716   4.830   6.290 -0.7106  1.3853  0.1732
 4269TIP3   OH229993   2.619   0.974   7.244  0.0767  0.3603 -0.3758
 4269TIP3    H129994   2.650   0.971   7.335  0.6489 -0.8308 -0.6024
 4269TIP3    H229995   2.530   1.008   7.251  0.6892  1.9098  0.4733
 4270TIP3   OH229996   1.071   1.424   1.374  0.1197  0.5678 -0.3292
 4270TIP3    H129997   1.073   1.520   1.372  0.3891  0.6128  0.8918
 4270TIP3    H229998   1.049   1.403   1.465 -1.2561 -0.5368 -0.8829
 4271TIP3   OH229999   0.994   2.540   7.474  0.2734 -0.2328  0.0576
 4271TIP3    H130000   0.982   2.491   7.556 -3.3519 -2.9825 -1.7799
 4271TIP3    H230001   0.937   2.617   7.483 -0.4398 -0.7454  0.0534
 4272TIP3   OH230002   1.533   2.566   7.183 -0.4619 -0.8146 -0.2226
 4272TIP3    H130003   1.585   2.508   7.240 -0.8629 -0.8681  0.0899
 4272TIP3    H230004   1.566   2.548   7.095  1.9221  1.0460  0.1954
 4273TIP3   OH230005   5.831   2.770   0.881 -0.9782  0.1329  0.3829
 4273TIP3    H130006   5.887   2.731   0.814 -2.3722 -0.5886 -0.4090
 4273TIP3    H230007   5.743   2.767   0.843 -1.9744 -1.1658  2.5813
 4274TIP3   OH230008   0.215   4.727   5.930  0.3568  0.4136  0.1379
 4274TIP3    H130009   0.182   4.703   6.017  1.2737 -3.8541 -0.4985
 4274TIP3    H230010   0.148   4.695   5.869  1.1787  0.4888 -0.8292
 4275TIP3   OH230011   2.195   2.215   2.613 -0.3462 -0.0397  0.7370
 4275TIP3    H130012   2.152   2.145   2.564  0.9889 -0.0694 -0.4429
 4275TIP3    H230013   2.275   2.234   2.564  0.0512  1.3156  1.8306
 4276TIP3   OH230014   2.236   3.181   0.509  0.7354  0.2035 -0.4591
 4276TIP3    H130015   2.198   3.118   0.571  1.6869  1.0571  1.0655
 4276TIP3    H230016   2.304   3.225   0.559 -0.5073  3.1171 -1.1213
 4277TIP3   OH230017   1.610   0.884   5.134 -0.2235  0.3783  0.7971
 4277TIP3    H130018   1.645   0.954   5.078 -1.3434  0.0970 -0.2869
 4277TIP3    H230019   1.688   0.847   5.176  0.5331  1.3210  0.2847
 4278TIP3   OH230020   5.258   0.879   1.596  0.1839  0.5110 -0.2175
 4278TIP3    H130021   5.178   0.930   1.605  0.5065  1.4095 -1.9615
 4278TIP3    H230022   5.279   0.851   1.685 -2.5581 -0.5620  0.1787
 4279TIP3   OH230023   3.651   1.747   2.072 -0.5481  0.2402 -0.0337
 4279TIP3    H130024   3.681   1.802   2.144  0.0749  1.1195 -0.9243
 4279TIP3    H230025   3.719   1.757   2.005 -1.4500  0.0080 -1.0144
 4280TIP3   OH230026   2.211   1.623   6.268 -0.0087 -0.2038  0.2569
 4280TIP3    H130027   2.148   1.694   6.257  0.1456  0.1017  1.2186
 4280TIP3    H230028   2.258   1.619   6.185 -0.1809  0.6670  0.1061
 4281TIP3   OH230029   5.368   4.333   1.000 -0.0281 -0.1370  0.3600
 4281TIP3    H130030   5.440   4.394   0.985 -1.2780  1.1014 -0.9683
 4281TIP3    H230031   5.335   4.312   0.912 -1.0545 -0.9586  0.9048
 4282TIP3   OH230032   3.538   1.207   7.302 -0.4235 -0.2690 -0.7093
 4282TIP3    H130033   3.520   1.222   7.395 -1.4555  5.0410 -1.4569
 4282TIP3    H230034   3.626   1.169   7.301 -0.6388 -1.1114  2.3900
 4283TIP3   OH230035   2.165   5.138   7.102  0.1726 -0.0049  0.7382
 4283TIP3    H130036   2.219   5.196   7.049  0.0190  0.4257  1.0468
 4283TIP3    H230037   2.124   5.078   7.040 -1.6980  1.8303  0.1003
 4284TIP3   OH230038   1.274   5.320   1.135 -1.0835 -0.0930  0.2989
 4284TIP3    H130039   1.322   5.296   1.056 -0.2594 -0.8455  1.0059
 4284TIP3    H230040   1.222   5.397   1.109 -2.5009 -1.5799 -1.5481
 4285TIP3   OH230041   6.188   0.892   0.197  0.1387  0.0675 -0.3615
 4285TIP3    H130042   6.244   0.951   0.248 -1.9207  0.7584  1.2239
 4285TIP3    H230043   6.198   0.807   0.241 -0.5428  0.3439  0.3540
 4286TIP3   OH230044   1.100   2.183   7.673  0.0419  0.4034  0.2314
 4286TIP3    H130045   1.155   2.204   7.598  0.6368 -1.9935 -0.0869
 4286TIP3    H230046   1.083   2.267   7.715  0.7475  1.6541 -1.8455
 4287TIP3   OH230047   0.937   5.260   6.708  0.0522  0.4628  0.2480
 4287TIP3    H130048   0.979   5.342   6.684  0.5037  0.9862  2.5314
 4287TIP3    H230049   1.010   5.202   6.732 -0.3381 -0.1161  0.0522
 4288TIP3   OH230050   1.909   3.205   7.180 -0.0263 -0.8079 -0.4720
 4288TIP3    H130051   1.850   3.171   7.247 -0.3018 -0.7988 -0.7074
 4288TIP3    H230052   1.946   3.284   7.218 -0.5246 -0.5550 -0.5037
 4289TIP3   OH230053   1.532   4.057   6.310 -0.5473  0.3876 -0.0469
 4289TIP3    H130054   1.451   4.105   6.330 -1.5276 -0.7570 -1.0932
 4289TIP3    H230055   1.596   4.093   6.371 -1.8237  1.3659  0.7935
 4290TIP3   OH230056   3.376   3.514   0.339 -0.4297 -0.3396  0.4175
 4290TIP3    H130057   3.452   3.456   0.350 -0.8342 -0.8451  0.6277
 4290TIP3    H230058   3.302   3.453   0.330 -0.5660  0.0663 -1.9370
 4291TIP3   OH230059   5.252   4.452   1.242 -0.0066 -0.0520  0.0553
 4291TIP3    H130060   5.344   4.429   1.235  0.0229  0.3227 -0.9625
 4291TIP3    H230061   5.227   4.481   1.153 -0.6340  1.5463  0.7037
 4292TIP3   OH230062   2.352   1.272   4.902 -0.2431 -0.5500  0.1605
 4292TIP3    H130063   2.284   1.205   4.894 -0.8726  0.1402 -0.3991
 4292TIP3    H230064   2.304   1.354   4.913  0.5257 -0.3407  2.4005
 4293TIP3   OH230065   4.193   0.421   6.403 -0.2296  0.6524  0.8477
 4293TIP3    H130066   4.244   0.405   6.324  0.4643  1.3071  1.1459
 4293TIP3    H230067   4.165   0.335   6.432 -0.9536  0.4409 -0.4043
 4294TIP3   OH230068   4.539   1.532   7.093  0.3118  0.0256  0.6666
 4294TIP3    H130069   4.618   1.563   7.048 -0.9178  1.4376 -0.6285
 4294TIP3    H230070   4.469   1.590   7.062 -1.3771 -1.5890  1.2695
 4295TIP3   OH230071   6.008   3.524   0.601 -0.1165  0.1496 -0.0228
 4295TIP3    H130072   5.927   3.563   0.569 -1.4655 -0.0942  2.8073
 4295TIP3    H230073   5.986   3.432   0.616  0.2018  0.3757  2.0826
 4296TIP3   OH230074   5.225   4.519   0.149 -0.5637 -0.0668 -0.0183
 4296TIP3    H130075   5.321   4.524   0.147 -0.4695 -1.1617  0.7747
 4296TIP3    H230076   5.200   4.576   0.222 -0.4560 -0.3458  0.2397
 4297TIP3   OH230077   0.076   2.275   0.974 -0.2226  0.5340  0.2202
 4297TIP3    H130078   0.007   2.337   1.000 -1.0829  0.0640 -0.8502
 4297TIP3    H230079   0.117   2.316   0.898 -0.9280 -0.2658 -0.6148
 4298TIP3   OH230080   3.037   0.763   5.705 -0.1567  0.6142 -0.3625
 4298TIP3    H130081   2.975   0.754   5.632  0.2869 -0.6634 -0.6071
 4298TIP3    H230082   3.105   0.821   5.672 -0.7214  1.2528 -0.4286
 4299TIP3   OH230083   2.775   5.623   7.471 -0.0985 -0.3860 -0.7018
 4299TIP3    H130084   2.731   5.705   7.491  0.4503 -0.6799  2.1633
 4299TIP3    H230085   2.709   5.570   7.428 -1.9876 -0.0578  1.5689
 4300TIP3   OH230086   5.552   3.703   0.507  0.0708 -0.2532 -0.5717
 4300TIP3    H130087   5.569   3.761   0.581  2.6686 -0.1845 -1.1609
 4300TIP3    H230088   5.529   3.762   0.435  0.5753 -0.1063 -0.6126
 4301TIP3   OH230089   4.947   0.569   0.820  0.0618  0.2685 -0.4686
 4301TIP3    H130090   4.970   0.662   0.825  2.9026 -0.3876  0.6901
 4301TIP3    H230091   4.869   0.561   0.875 -1.0066  2.1252 -1.6209
 4302TIP3   OH230092   5.185   0.966   7.455  0.0487  0.2892 -0.1350
 4302TIP3    H130093   5.266   0.930   7.491 -0.0004 -0.5632 -0.8390
 4302TIP3    H230094   5.117   0.903   7.479  0.0142 -0.2997 -1.6600
 4303TIP3   OH230095   2.956   3.350   6.299 -0.1663 -0.3314 -0.5552
 4303TIP3    H130096   2.921   3.425   6.250  2.0227 -0.9064 -3.3016
 4303TIP3    H230097   3.035   3.384   6.340  0.4845 -0.9441 -1.2800
 4304TIP3   OH230098   0.406   0.189   1.300  0.3051 -0.3279 -0.4442
 4304TIP3    H130099   0.472   0.258   1.299  1.3593 -1.3208 -1.2429
 4304TIP3    H230100   0.453   0.110   1.325 -0.8281 -0.8402  0.1576
 4305TIP3   OH230101   3.906   4.312   6.813  0.5097 -0.1536  0.2300
 4305TIP3    H130102   3.892   4.254   6.738  1.7254  0.2124 -0.2997
 4305TIP3    H230103   3.978   4.271   6.861 -0.1842 -0.3258  1.1665
 4306TIP3   OH230104   5.570   6.140   6.756 -0.1448 -0.0451  0.0031
 4306TIP3    H130105   5.621   6.190   6.820  0.9068 -2.7867  1.4525
 4306TIP3    H230106   5.580   6.189   6.674  2.9358  0.7534  0.7446
 4307TIP3   OH230107   0.961   1.870   1.905  0.1373  0.7396 -0.1775
 4307TIP3    H130108   0.986   1.962   1.900 -0.1359  0.7699 -1.5025
 4307TIP3    H230109   1.042   1.824   1.925  0.3418  1.2331  0.1385
 4308TIP3   OH230110   3.128   2.353   1.232 -0.0164 -0.2274  0.7437
 4308TIP3    H130111   3.039   2.366   1.264 -0.4711 -0.2486 -0.4552
 4308TIP3    H230112   3.158   2.274   1.277 -0.0739  0.5345  2.1946
 4309TIP3   OH230113   4.051   5.058   0.631 -0.0913  0.5429 -0.9041
 4309TIP3    H130114   4.058   5.139   0.580 -1.1025  0.2248 -1.5866
 4309TIP3    H230115   3.962   5.059   0.666  0.2135  0.1949 -0.0773
 4310TIP3   OH230116   3.336   2.442   5.169  0.3043 -0.3248  0.2246
 4310TIP3    H130117   3.251   2.457   5.127  0.9971  0.7935 -0.8486
 4310TIP3    H230118   3.397   2.500   5.122  1.2990  0.3736  2.2439
 4311TIP3   OH230119   2.862   6.363   1.547 -0.5183 -0.3492 -0.0645
 4311TIP3    H130120   2.857   6.453   1.581  0.0845 -0.1334 -0.5409
 4311TIP3    H230121   2.771   6.333   1.548 -0.9666  0.8671 -1.5094
 4312TIP3   OH230122   0.873   3.828   1.275  0.2983  0.2820  0.2189
 4312TIP3    H130123   0.795   3.849   1.223  0.4130  0.8240  0.2565
 4312TIP3    H230124   0.931   3.784   1.213  0.4514  0.9593 -0.1378
 4313TIP3   OH230125   0.439   4.849   5.835 -0.3255  0.3692 -0.1727
 4313TIP3    H130126   0.477   4.772   5.791 -0.3524  0.2113  0.0776
 4313TIP3    H230127   0.390   4.812   5.908 -1.5991  0.5041 -0.9224
 4314TIP3   OH230128   4.742   0.850   1.631 -0.3811 -0.0722 -0.4023
 4314TIP3    H130129   4.731   0.925   1.689  2.1073  1.5606 -1.8521
 4314TIP3    H230130   4.666   0.853   1.573 -1.6234 -0.2819  1.1432
 4315TIP3   OH230131   4.482   2.818   0.228  0.4699  0.5701 -0.1214
 4315TIP3    H130132   4.489   2.913   0.215 -0.3053  0.2339 -4.1309
 4315TIP3    H230133   4.561   2.783   0.189  1.1254 -0.5275  2.0125
 4316TIP3   OH230134   5.442   3.256   5.932  0.2019  0.1242 -0.4973
 4316TIP3    H130135   5.377   3.195   5.897 -0.1650 -0.5185  1.2039
 4316TIP3    H230136   5.475   3.213   6.011  0.1515  1.9777  0.5947
 4317TIP3   OH230137   2.519   5.358   1.556  0.9475  0.0664  0.3785
 4317TIP3    H130138   2.478   5.328   1.475  1.8826 -0.1137 -0.0379
 4317TIP3    H230139   2.466   5.319   1.626 -0.4948  1.0599 -0.1134
 4318TIP3   OH230140   3.073   2.754   1.189  0.3881 -0.4655  0.2758
 4318TIP3    H130141   3.040   2.795   1.269  1.9618 -0.2709  0.8438
 4318TIP3    H230142   3.168   2.764   1.194  0.5313 -0.6217 -1.5242
 4319TIP3   OH230143   1.344   2.947   0.347 -0.1513  0.6149  0.1253
 4319TIP3    H130144   1.413   2.941   0.413  0.6749  1.4700 -0.6237
 4319TIP3    H230145   1.382   2.905   0.269 -2.2744 -3.3638  0.9757
 4320TIP3   OH230146   5.639   6.408   2.035  0.2205 -0.6860  0.0773
 4320TIP3    H130147   5.561   6.353   2.040  0.8243 -1.5622  0.0475
 4320TIP3    H230148   5.605   6.498   2.029 -0.7735 -1.0214  0.4998
 4321TIP3   OH230149   1.815   4.935   6.438  0.2574  0.3391 -0.5464
 4321TIP3    H130150   1.738   4.978   6.476 -0.9557 -2.2984  0.2003
 4321TIP3    H230151   1.829   4.980   6.355 -1.5875  1.4209 -0.3283
 4322TIP3   OH230152   4.958   4.240   7.205  0.3517  0.2253  0.0818
 4322TIP3    H130153   5.038   4.277   7.243  1.5138 -0.2359 -1.7604
 4322TIP3    H230154   4.928   4.176   7.269  2.9491 -1.4608 -0.2234
 4323TIP3   OH230155   1.625   2.222   7.172  0.4119 -0.0514 -0.0264
 4323TIP3    H130156   1.689   2.246   7.239 -0.3411 -0.1554  0.7392
 4323TIP3    H230157   1.566   2.160   7.215 -0.9218  0.9470 -0.3463
 4324TIP3   OH230158   1.191   2.901   7.238  0.0819 -0.6034 -0.4059
 4324TIP3    H130159   1.282   2.916   7.213 -0.2572  1.6550 -0.4997
 4324TIP3    H230160   1.142   2.915   7.157 -0.3271 -3.2753 -0.7291
 4325TIP3   OH230161   6.396   3.806   7.406  0.4757 -0.1775  0.3476
 4325TIP3    H130162   6.321   3.861   7.429  0.1537 -0.7256  0.6416
 4325TIP3    H230163   6.363   3.750   7.336  0.8897  0.1991 -0.1512
 4326TIP3   OH230164   3.439   1.691   7.716  0.2681  0.1567  0.5373
 4326TIP3    H130165   3.411   1.734   7.635 -0.2550 -1.0450  0.0599
 4326TIP3    H230166   3.360   1.648   7.749  1.1862 -2.1142 -0.0829
 4327TIP3   OH230167   3.526   3.050   7.584  0.8021  0.2177 -0.0968
 4327TIP3    H130168   3.594   3.117   7.576  0.1976  0.8110 -0.4178
 4327TIP3    H230169   3.460   3.089   7.641 -0.2158  0.4857 -1.3882
 4328TIP3   OH230170   3.702   5.662   7.072  0.1376  0.3034  0.1764
 4328TIP3    H130171   3.765   5.726   7.039  0.9590 -0.2411  0.6234
 4328TIP3    H230172   3.692   5.684   7.164 -2.5469  2.1407 -0.4477
 4329TIP3   OH230173   2.843   0.670   7.706  0.1744  0.0238  0.2187
 4329TIP3    H130174   2.874   0.691   7.618  0.4132 -0.9495  0.0590
 4329TIP3    H230175   2.919   0.630   7.749 -0.3422 -0.7960  0.3888
 4330TIP3   OH230176   0.007   3.527   7.285 -0.2963  0.0153  0.0536
 4330TIP3    H130177  -0.056   3.465   7.321 -3.1153  1.3532 -2.1209
 4330TIP3    H230178   0.003   3.603   7.344  0.1092 -0.3107  0.5050
 4331TIP3   OH230179   0.029   5.535   0.733 -0.6831 -0.3022  0.6198
 4331TIP3    H130180   0.017   5.578   0.648  2.2340 -0.2831  0.0933
 4331TIP3    H230181  -0.013   5.450   0.723 -0.4841 -0.2607 -0.8289
 4332TIP3   OH230182   5.833   4.548   6.024  0.9069 -0.1171  0.0854
 4332TIP3    H130183   5.870   4.517   6.107  0.8705 -1.0770 -0.2511
 4332TIP3    H230184   5.877   4.495   5.957 -0.1222 -0.3563 -0.4063
 4333TIP3   OH230185   4.447   4.475   1.881 -0.0756  0.0429 -0.1335
 4333TIP3    H130186   4.485   4.420   1.949 -1.6398  0.2636  0.9894
 4333TIP3    H230187   4.428   4.416   1.809 -0.0771 -0.5474  0.3460
 4334TIP3   OH230188   3.881   2.771   5.373  0.0606  0.1562 -0.4862
 4334TIP3    H130189   3.974   2.775   5.349 -0.1911  0.6973 -1.4076
 4334TIP3    H230190   3.865   2.678   5.389  0.1438 -0.3654 -2.9675
 4335TIP3   OH230191   2.216   5.112   1.340  0.5423  0.0729  0.6039
 4335TIP3    H130192   2.160   5.113   1.262 -2.6993  0.7262  2.7600
 4335TIP3    H230193   2.260   5.197   1.339  0.0561  0.3275 -0.1506
 4336TIP3   OH230194   1.828   6.576   7.151 -0.3282  0.1335  0.6688
 4336TIP3    H130195   1.842   6.663   7.188  0.1278  0.0112  0.8046
 4336TIP3    H230196   1.742   6.550   7.182 -0.9028  0.9421 -0.2055
 4337TIP3   OH230197   0.394   1.177   6.658  0.0361 -0.2171  0.8575
 4337TIP3    H130198   0.440   1.230   6.593  0.4080  0.4422  1.6426
 4337TIP3    H230199   0.439   1.092   6.655 -0.8040 -0.6477 -0.6737
 4338TIP3   OH230200   1.353   0.367   0.855 -0.3011  0.3783 -0.6336
 4338TIP3    H130201   1.347   0.275   0.830 -1.8962  0.4351 -0.5849
 4338TIP3    H230202   1.389   0.367   0.943  0.4841 -0.1336 -0.9433
 4339TIP3   OH230203   4.625   5.862   1.931  0.2935 -0.3060 -0.0948
 4339TIP3    H130204   4.684   5.877   2.004  0.0200  1.1452 -0.1414
 4339TIP3    H230205   4.656   5.921   1.862 -1.8682  1.3850  0.2837
 4340TIP3   OH230206   2.836   1.544   5.953  0.1722  0.1360 -0.6840
 4340TIP3    H130207   2.908   1.519   6.010  0.0430  1.8896  0.3298
 4340TIP3    H230208   2.877   1.597   5.885 -0.1036  0.9863 -0.2061
 4341TIP3   OH230209   4.387   5.876   1.196 -0.2673  0.3526  0.3926
 4341TIP3    H130210   4.353   5.939   1.133 -0.0522 -1.2985 -1.4859
 4341TIP3    H230211   4.325   5.803   1.194  0.0166  0.0296  1.7476
 4342TIP3   OH230212   5.773   4.770   7.319  0.4387  0.1607  0.5570
 4342TIP3    H130213   5.713   4.729   7.257  0.3677  1.3826 -0.2059
 4342TIP3    H230214   5.796   4.699   7.380 -2.2239 -0.2136  1.2505
 4343TIP3   OH230215   2.132   0.157   7.580 -0.0608  0.1687 -0.0278
 4343TIP3    H130216   2.178   0.192   7.504 -0.0344 -3.4196 -1.8576
 4343TIP3    H230217   2.045   0.196   7.575  0.4616  1.2980 -0.8737
 4344TIP3   OH230218   0.818   5.869   0.782  0.4438 -0.3979  0.0050
 4344TIP3    H130219   0.888   5.907   0.835 -0.1965  0.2115  0.4305
 4344TIP3    H230220   0.781   5.800   0.837 -0.2153  0.2291  0.3651
 4345TIP3   OH230221   4.634   4.589   7.289  1.0062  0.2403 -0.1930
 4345TIP3    H130222   4.565   4.544   7.339  1.2559  1.2543  1.1321
 4345TIP3    H230223   4.657   4.528   7.220 -0.1700 -0.7533  0.2455
 4346TIP3   OH230224   3.394   3.100   5.822  0.0918  0.1925 -0.5102
 4346TIP3    H130225   3.364   3.033   5.760  0.7049 -0.4860 -0.0939
 4346TIP3    H230226   3.347   3.179   5.797 -0.6860 -0.4081 -0.9859
 4347TIP3   OH230227   1.269   2.840   6.964  0.6888 -0.1046  0.6414
 4347TIP3    H130228   1.283   2.745   6.959  0.6336 -0.1000  0.4311
 4347TIP3    H230229   1.187   2.855   6.918 -0.2514 -0.1805  2.1986
 4348TIP3   OH230230   4.715   5.181   1.062 -0.1882 -0.4698 -0.1631
 4348TIP3    H130231   4.629   5.167   1.023 -0.5289  1.5180 -0.2539
 4348TIP3    H230232   4.776   5.169   0.989 -0.5963  0.3314 -0.6589
 4349TIP3   OH230233   2.225   0.229   1.350  0.4165 -0.7664  0.5135
 4349TIP3    H130234   2.159   0.190   1.408 -2.0924  0.2516 -1.4564
 4349TIP3    H230235   2.224   0.322   1.373 -0.1561 -0.4603 -0.6914
 4350TIP3   OH230236   0.365   5.767   6.744 -0.4423  0.3771 -0.3177
 4350TIP3    H130237   0.454   5.792   6.719  0.0386 -0.6142  0.3275
 4350TIP3    H230238   0.348   5.687   6.694  0.4142 -1.4513  2.1223
 4351TIP3   OH230239   1.702   4.818   0.531 -0.2516  0.3788 -0.2395
 4351TIP3    H130240   1.730   4.848   0.445 -0.7037  0.8217 -0.2354
 4351TIP3    H230241   1.728   4.888   0.591 -1.5150  0.9081 -0.2627
 4352TIP3   OH230242   4.107   1.469   1.187  0.0755  0.4457  0.5688
 4352TIP3    H130243   4.093   1.536   1.254 -0.8673  0.7161  0.1077
 4352TIP3    H230244   4.113   1.387   1.236 -0.2396  0.6845  1.0162
 4353TIP3   OH230245   3.980   1.208   6.880  0.1364 -0.8322 -0.2020
 4353TIP3    H130246   3.910   1.228   6.942 -0.0092  0.2976 -0.7048
 4353TIP3    H230247   3.949   1.131   6.833 -0.9748 -0.1155 -0.6861
 4354TIP3   OH230248   1.036   0.387   6.705  0.1536 -0.4825  0.5704
 4354TIP3    H130249   0.971   0.344   6.649 -1.9816 -1.8417  3.8154
 4354TIP3    H230250   1.115   0.334   6.695 -0.2812 -0.9216 -0.7890
 4355TIP3   OH230251   1.109   4.104   1.155  0.3113  0.0769 -0.0676
 4355TIP3    H130252   1.158   4.023   1.166 -1.7378 -1.3981 -1.2409
 4355TIP3    H230253   1.171   4.173   1.179  2.0936 -1.8057  1.0314
 4356TIP3   OH230254   2.274   4.449   0.568  0.4345  0.6329 -0.9745
 4356TIP3    H130255   2.288   4.481   0.657  2.5619 -0.6918 -0.7681
 4356TIP3    H230256   2.179   4.453   0.556  0.2047  2.1449  0.8164
 4357TIP3   OH230257   5.883   6.494   1.357  0.2433 -0.1560  0.1287
 4357TIP3    H130258   5.920   6.407   1.345  1.1018  0.2010  0.1160
 4357TIP3    H230259   5.905   6.518   1.447  0.2837  0.1745  0.0341
 4358TIP3   OH230260   1.461   5.368   6.838 -0.6253  0.6752  0.1221
 4358TIP3    H130261   1.482   5.424   6.763  1.7906  1.3711  1.2183
 4358TIP3    H230262   1.460   5.427   6.913  0.4683 -0.4942  1.1037
 4359TIP3   OH230263   1.809   1.278   5.756 -0.4115 -0.2776 -0.7043
 4359TIP3    H130264   1.816   1.326   5.839 -1.3843 -0.0671 -0.7384
 4359TIP3    H230265   1.859   1.198   5.771 -0.0948  0.0179 -0.1142
 4360TIP3   OH230266   5.085   0.338   5.848  0.0971 -0.2033  0.4574
 4360TIP3    H130267   5.093   0.250   5.812  1.2237 -0.4769  1.3218
 4360TIP3    H230268   5.108   0.397   5.776  1.0187 -0.6839  0.3569
 4361TIP3   OH230269   3.700   3.968   7.311 -0.5965  0.5472 -0.2669
 4361TIP3    H130270   3.628   3.930   7.361  1.3344 -0.9312  1.5842
 4361TIP3    H230271   3.764   3.897   7.303  0.5643  1.7175 -2.0735
 4362TIP3   OH230272   4.308   4.523   1.409 -0.0188 -0.2673  0.0955
 4362TIP3    H130273   4.311   4.539   1.503  2.5256 -0.8870  0.1835
 4362TIP3    H230274   4.344   4.603   1.370 -1.9671  0.3902 -0.4648
 4363TIP3   OH230275   1.948   2.668   7.566 -0.3294 -0.0060  0.4255
 4363TIP3    H130276   1.946   2.720   7.486  0.6153 -0.6141 -0.0116
 4363TIP3    H230277   2.031   2.690   7.607  0.3900 -1.5818 -0.0832
 4364TIP3   OH230278   2.268   1.526   5.393  0.1650  0.1749 -0.3440
 4364TIP3    H130279   2.252   1.443   5.349 -2.1306 -0.1578  0.9227
 4364TIP3    H230280   2.274   1.590   5.322 -0.8162 -0.7099 -1.2608
 4365TIP3   OH230281   5.346   0.076   6.077 -0.0228  0.1130  0.6584
 4365TIP3    H130282   5.310  -0.011   6.058 -1.4473  0.5826  1.1004
 4365TIP3    H230283   5.429   0.078   6.028 -0.9099 -0.7513 -0.9813
 4366TIP3   OH230284   2.632   2.161   7.272  0.4000 -0.2413  0.0186
 4366TIP3    H130285   2.689   2.126   7.341 -0.5231  0.2151  1.0423
 4366TIP3    H230286   2.603   2.246   7.306 -2.4580 -1.2900  0.4570
 4367TIP3   OH230287   2.590   0.199   6.283  1.2230  0.3403 -0.2245
 4367TIP3    H130288   2.598   0.269   6.348  0.4948 -0.8059  1.1429
 4367TIP3    H230289   2.536   0.237   6.214  0.9306  1.1658  0.4392
 4368TIP3   OH230290   5.143   6.421   7.539 -0.2752 -0.5863  0.8271
 4368TIP3    H130291   5.170   6.380   7.456 -0.3780  1.7658 -0.4622
 4368TIP3    H230292   5.224   6.459   7.574 -0.6915  0.7213  0.4021
 4369TIP3   OH230293   4.938   4.693   6.848 -0.4296  0.3152 -0.0747
 4369TIP3    H130294   4.914   4.658   6.934 -0.5082 -0.9141 -0.5817
 4369TIP3    H230295   5.021   4.649   6.827 -1.2307 -0.6226 -1.3336
 4370TIP3   OH230296   1.169   3.783   0.608  0.1830 -0.1657  0.2630
 4370TIP3    H130297   1.156   3.873   0.578 -0.6940 -0.3716 -0.0110
 4370TIP3    H230298   1.243   3.751   0.556  0.2383  0.2666  0.0719
 4371TIP3   OH230299   3.374   2.462   1.206  0.6103  0.6103 -0.6540
 4371TIP3    H130300   3.294   2.416   1.229  2.2655 -1.8531  0.7237
 4371TIP3    H230301   3.424   2.399   1.154  1.7618  1.9898 -1.3006
 4372TIP3   OH230302   2.393   6.319   7.343  0.8831 -0.4181 -0.2074
 4372TIP3    H130303   2.359   6.231   7.358  3.1642 -1.3324 -0.0020
 4372TIP3    H230304   2.426   6.317   7.253  1.1350  0.1657 -0.1301
 4373TIP3   OH230305   5.305   1.022   1.280  0.0085 -0.4640 -0.1558
 4373TIP3    H130306   5.353   0.939   1.274  0.3207 -0.5729  2.6099
 4373TIP3    H230307   5.219   0.998   1.314 -0.9087  0.0983 -1.9698
 4374TIP3   OH230308   1.752   3.705   1.347 -0.2650 -0.9868 -0.0526
 4374TIP3    H130309   1.761   3.651   1.268  0.9608  0.9204 -1.2748
 4374TIP3    H230310   1.801   3.657   1.414  0.4156 -1.6112 -0.9744
 4375TIP3   OH230311   2.865   4.038   0.652  0.0557 -0.5501  0.3791
 4375TIP3    H130312   2.823   3.956   0.627  0.3444 -0.7017  0.3860
 4375TIP3    H230313   2.842   4.100   0.582  1.2726 -1.1000 -0.5415
 4376TIP3   OH230314   3.101   2.011   1.431  0.0645 -0.4815  0.0062
 4376TIP3    H130315   3.073   1.981   1.345  2.6837 -2.7630 -0.1924
 4376TIP3    H230316   3.170   2.075   1.412 -0.1500 -0.1157  0.4381
 4377TIP3   OH230317   6.184   3.771   1.335  0.3668  0.7538  0.0185
 4377TIP3    H130318   6.155   3.798   1.248  0.2194  0.8668  0.1016
 4377TIP3    H230319   6.120   3.809   1.394  0.0221  0.0361  0.1249
 4378TIP3   OH230320   4.605   6.168   7.102 -0.4382  0.5899 -0.2103
 4378TIP3    H130321   4.588   6.262   7.097 -1.0860  0.5111  0.4196
 4378TIP3    H230322   4.557   6.139   7.179 -0.8261 -0.3806 -0.7979
 4379TIP3   OH230323   2.207   4.621   0.772 -0.1008 -0.1728 -0.0118
 4379TIP3    H130324   2.125   4.617   0.723  0.6329 -0.4346 -1.2527
 4379TIP3    H230325   2.229   4.714   0.776 -0.9923  0.0124  1.2866
 4380TIP3   OH230326   1.988   4.263   0.597 -0.0210  0.0166 -0.3516
 4380TIP3    H130327   2.052   4.211   0.547  0.1031  0.8325 -1.0646
 4380TIP3    H230328   1.905   4.244   0.554 -0.2065 -0.7033  0.3012
 4381TIP3   OH230329   4.492   2.979   6.472  0.1147  0.6629  0.1183
 4381TIP3    H130330   4.578   3.003   6.436  1.0460 -1.0469  1.0550
 4381TIP3    H230331   4.470   3.051   6.531  2.6609 -0.3901  2.6205
 4382TIP3   OH230332   0.021   2.708   6.691  0.1163  0.2999  0.0283
 4382TIP3    H130333  -0.073   2.697   6.706 -0.4611  3.5097 -0.4714
 4382TIP3    H230334   0.038   2.657   6.612 -1.6999  1.2172 -1.0274
 4383TIP3   OH230335   4.861   5.501   6.241  0.1901  0.0977  0.2647
 4383TIP3    H130336   4.927   5.436   6.219  0.9919  1.0563 -0.2592
 4383TIP3    H230337   4.777   5.455   6.232  0.7817 -1.2756  1.4203
 4384TIP3   OH230338   0.698   2.090   7.405 -0.0980  0.1895 -0.0205
 4384TIP3    H130339   0.714   2.163   7.465  1.3764  0.3195 -0.5280
 4384TIP3    H230340   0.685   2.132   7.320  3.0882 -0.1685 -0.7796
 4385TIP3   OH230341   3.885   3.232   0.989  0.3841  0.0982  0.1985
 4385TIP3    H130342   3.905   3.295   1.057 -0.1647  0.3985  0.0873
 4385TIP3    H230343   3.863   3.284   0.912  0.5542 -0.2334 -0.0822
 4386TIP3   OH230344   0.836   0.294   6.487 -0.0853  0.0660 -0.2381
 4386TIP3    H130345   0.813   0.376   6.445  0.8999  0.5775  0.2034
 4386TIP3    H230346   0.928   0.279   6.465  0.4163  0.2725  1.5486
 4387TIP3   OH230347   2.666   1.501   0.445 -0.0790 -0.2062  0.1865
 4387TIP3    H130348   2.733   1.535   0.503 -1.0503  0.1912  1.1098
 4387TIP3    H230349   2.636   1.577   0.396  0.6278 -0.5124 -0.7515
 4388TIP3   OH230350   3.371   3.661   5.563 -0.1148  0.3233 -0.3852
 4388TIP3    H130351   3.462   3.673   5.588 -0.1373  0.4149 -0.3455
 4388TIP3    H230352   3.323   3.726   5.615 -0.2163  0.1942 -0.3151
 4389TIP3   OH230353   1.619   2.506   1.670 -0.1787 -0.2140 -0.2007
 4389TIP3    H130354   1.663   2.552   1.598 -1.0165 -1.3403 -1.4863
 4389TIP3    H230355   1.592   2.423   1.632 -1.7952 -0.3132  1.0623
 4390TIP3   OH230356   0.420   4.925   1.528 -0.1037 -0.1552  0.3911
 4390TIP3    H130357   0.343   4.919   1.584 -0.1625  0.0716  0.3344
 4390TIP3    H230358   0.492   4.895   1.584 -0.3627 -1.2648  0.1619
 4391TIP3   OH230359   2.027   4.741   1.704  0.3679  0.6366 -0.2388
 4391TIP3    H130360   2.040   4.817   1.647 -1.3129  0.5189 -0.8154
 4391TIP3    H230361   2.059   4.667   1.653 -2.2219  0.3581 -1.6134
 4392TIP3   OH230362   5.939   4.448   5.773  0.4799  0.6384  0.9043
 4392TIP3    H130363   5.893   4.369   5.803  0.4683  0.1993 -0.2433
 4392TIP3    H230364   6.025   4.416   5.745  0.0551  0.8425 -0.6734
 4393TIP3   OH230365   1.431   6.056   7.217  0.6113  0.0793  0.3261
 4393TIP3    H130366   1.491   6.007   7.274  0.7648  0.3577  0.4079
 4393TIP3    H230367   1.428   6.006   7.136 -0.2348 -0.7608  0.8593
 4394TIP3   OH230368   5.154   1.980   5.935 -0.5184  0.1642 -0.5199
 4394TIP3    H130369   5.171   1.895   5.894 -1.4862 -1.0411  1.4656
 4394TIP3    H230370   5.238   2.026   5.932  0.4257 -1.4985 -0.2117
 4395TIP3   OH230371   0.056   3.260   1.242  0.4630  0.5096  0.1188
 4395TIP3    H130372   0.090   3.171   1.237  0.0133  0.3048  0.5575
 4395TIP3    H230373   0.134   3.316   1.250  0.8276  0.2861 -1.5919
 4396TIP3   OH230374   3.147   4.129   7.655  0.2495 -0.5887  0.3677
 4396TIP3    H130375   3.186   4.156   7.738 -0.1015  0.2615  0.2623
 4396TIP3    H230376   3.219   4.092   7.605  0.9220  0.8518  0.2235
 4397TIP3   OH230377   4.597   3.208   0.816 -0.3819 -0.4580  0.6670
 4397TIP3    H130378   4.553   3.150   0.754 -1.5989 -0.4033  1.4387
 4397TIP3    H230379   4.683   3.224   0.778 -0.7697 -1.1576 -0.5437
 4398TIP3   OH230380   4.585   4.371   6.197  0.3244  0.6064  0.2046
 4398TIP3    H130381   4.662   4.394   6.145 -0.7531  0.9830 -1.2939
 4398TIP3    H230382   4.592   4.277   6.211  0.5181  0.4490 -0.8625
 4399TIP3   OH230383   2.755   4.873   7.018 -0.1249 -0.4248  0.0058
 4399TIP3    H130384   2.738   4.933   6.946  2.8113 -0.6706 -1.0268
 4399TIP3    H230385   2.781   4.930   7.091  1.8971 -0.2937 -0.7421
 4400TIP3   OH230386   2.760   2.422   5.466  0.5316 -0.2193  0.5163
 4400TIP3    H130387   2.852   2.402   5.483  0.3832 -1.8474 -0.3798
 4400TIP3    H230388   2.745   2.505   5.511  2.5306  0.2769  0.3672
 4401TIP3   OH230389   2.409   1.059   6.665  0.7108 -0.2532  0.2479
 4401TIP3    H130390   2.437   0.984   6.718  0.4341 -1.2016 -0.9269
 4401TIP3    H230391   2.319   1.040   6.641  0.9775 -0.0681 -0.9473
 4402TIP3   OH230392   2.599   6.061   0.943 -0.6297  0.3276  0.1478
 4402TIP3    H130393   2.559   6.055   0.856  2.7005 -2.2670 -1.4776
 4402TIP3    H230394   2.663   6.132   0.936  0.9236 -1.0449 -0.2460
 4403TIP3   OH230395   0.687   0.014   1.563 -0.2420 -0.2384 -0.0176
 4403TIP3    H130396   0.667   0.103   1.591 -1.5730 -0.2070 -0.9307
 4403TIP3    H230397   0.673   0.015   1.468 -0.7583 -1.5353  0.0188
 4404TIP3   OH230398   6.610   4.366   0.791  0.3535  0.3765 -0.0054
 4404TIP3    H130399   6.555   4.443   0.775  0.1763  0.0436 -1.1181
 4404TIP3    H230400   6.692   4.401   0.824 -0.3191  0.9220  1.1547
 4405TIP3   OH230401   4.615   1.299   7.258  0.0662 -0.3605  0.3764
 4405TIP3    H130402   4.577   1.358   7.193 -0.2678  0.0432  0.9266
 4405TIP3    H230403   4.668   1.238   7.207  0.5819  0.5294 -0.1913
 4406TIP3   OH230404   1.808   2.827   0.531  0.0632 -0.1496  0.3101
 4406TIP3    H130405   1.878   2.789   0.478  0.0840 -0.1153  0.3133
 4406TIP3    H230406   1.848   2.843   0.616 -0.6286 -2.6163  1.1889
 4407TIP3   OH230407   3.986   5.553   1.080 -0.1895  0.1542  0.3509
 4407TIP3    H130408   4.010   5.466   1.112  0.7398  0.4848  0.6005
 4407TIP3    H230409   3.890   5.553   1.079 -0.1959 -0.8662  0.3465
 4408TIP3   OH230410   5.057   3.137   6.087  0.6289 -0.4260 -0.2265
 4408TIP3    H130411   4.981   3.081   6.104 -0.2663  0.6715 -0.5077
 4408TIP3    H230412   5.038   3.218   6.135  1.8810 -0.3248  0.1301
 4409TIP3   OH230413   5.066   0.099   1.886  0.3850 -0.2794 -0.2001
 4409TIP3    H130414   5.144   0.052   1.916 -0.1620 -1.0199  0.0907
 4409TIP3    H230415   5.033   0.046   1.814 -1.2133 -1.3389  1.2224
 4410TIP3   OH230416   3.525   3.993   5.862 -0.0053  0.2778  0.3761
 4410TIP3    H130417   3.564   3.963   5.779 -1.0050  0.9500 -0.3486
 4410TIP3    H230418   3.547   4.086   5.866 -0.8623  0.4815  0.3497
 4411TIP3   OH230419   3.359   4.029   7.335  0.2098  0.0958  0.0571
 4411TIP3    H130420   3.292   3.962   7.318  0.7902 -0.1283 -1.5053
 4411TIP3    H230421   3.437   3.979   7.357  0.6916  0.2241 -1.2795
 4412TIP3   OH230422   2.962   5.514   1.318  0.1138  0.0066 -0.0234
 4412TIP3    H130423   2.879   5.473   1.340 -0.4305 -0.4340 -2.6393
 4412TIP3    H230424   2.944   5.608   1.323 -0.3800 -0.0856 -0.0042
 4413TIP3   OH230425   0.432   3.473   6.001 -0.5599  0.4737 -0.4558
 4413TIP3    H130426   0.471   3.403   6.053 -1.6020 -0.3534 -0.7602
 4413TIP3    H230427   0.505   3.533   5.983 -0.2507  1.0135  2.2604
 4414TIP3   OH230428   0.716   1.015   6.216 -0.1590 -0.4318  0.2091
 4414TIP3    H130429   0.751   1.055   6.136  1.7677 -0.4480  1.0048
 4414TIP3    H230430   0.692   1.090   6.271  0.5429 -0.3882  0.4634
 4415TIP3   OH230431   4.932   6.563   7.654 -0.7067 -0.3507  0.6211
 4415TIP3    H130432   5.008   6.541   7.599 -0.4325 -0.2499  0.9521
 4415TIP3    H230433   4.913   6.654   7.632 -2.7948 -1.2634 -1.8774
 4416TIP3   OH230434   1.165   3.525   1.908 -0.3112  0.0349 -0.4763
 4416TIP3    H130435   1.241   3.583   1.921 -0.0439 -0.2743 -0.6320
 4416TIP3    H230436   1.204   3.440   1.885 -0.7102  0.0077 -1.0835
 4417TIP3   OH230437   1.238   4.172   2.223 -0.1523 -0.0520 -0.2082
 4417TIP3    H130438   1.182   4.245   2.250  0.2067 -0.1163  0.7606
 4417TIP3    H230439   1.178   4.104   2.196 -0.5828 -0.2508  1.1526
 4418TIP3   OH230440   3.639   3.790   2.162  0.7252  0.0972 -0.4759
 4418TIP3    H130441   3.677   3.726   2.101 -0.5853  0.3182 -1.5747
 4418TIP3    H230442   3.714   3.822   2.212  1.5951 -1.3417 -0.7945
 4419TIP3   OH230443   1.635   4.213   6.553  0.0326  0.6876  0.3386
 4419TIP3    H130444   1.722   4.253   6.556 -0.5105  1.9942 -0.5555
 4419TIP3    H230445   1.574   4.287   6.563 -1.0364  0.3802 -2.8101
 4420TIP3   OH230446   1.255   2.470   0.989  0.3147  0.5972  0.0749
 4420TIP3    H130447   1.276   2.492   0.898  1.6486 -1.0804 -0.0613
 4420TIP3    H230448   1.338   2.444   1.027 -0.5178 -0.3615  1.3020
 4421TIP3   OH230449   0.911   3.420   1.329 -0.0968  0.0957 -0.1845
 4421TIP3    H130450   0.897   3.488   1.394  0.4774 -0.4111  0.4739
 4421TIP3    H230451   1.004   3.427   1.306  0.0356 -0.6389  0.0983
 4422TIP3   OH230452   5.902   5.067   1.228  0.5678  0.3304 -0.1201
 4422TIP3    H130453   5.812   5.084   1.201  0.7116  1.1847 -0.0629
 4422TIP3    H230454   5.955   5.092   1.152  0.8662  1.3072  0.3995
 4423TIP3   OH230455   2.928   1.053   5.541 -0.2021 -0.0541 -0.0399
 4423TIP3    H130456   2.931   1.105   5.461 -1.1755 -0.6100 -0.4630
 4423TIP3    H230457   2.918   0.963   5.510 -2.3490 -0.1286  0.6924
 4424TIP3   OH230458   0.160   5.956   7.124 -0.3558  0.8442 -0.3880
 4424TIP3    H130459   0.186   5.991   7.038 -0.6053 -0.7789 -1.1676
 4424TIP3    H230460   0.107   6.025   7.163 -1.1737  1.2032 -2.0350
 4425TIP3   OH230461   0.864   2.953   0.209 -0.2388 -0.6469 -0.4955
 4425TIP3    H130462   0.844   3.044   0.231 -0.9043 -0.4079 -1.9694
 4425TIP3    H230463   0.959   2.946   0.218 -0.0322  0.5305 -1.4827
 4426TIP3   OH230464   6.379   1.762   2.028  0.2805 -0.3107 -0.2491
 4426TIP3    H130465   6.466   1.803   2.028  0.2805 -0.2251  1.3794
 4426TIP3    H230466   6.323   1.825   2.075 -0.4138 -0.8377 -0.3591
 4427TIP3   OH230467   5.556   3.145   1.421  0.5360  0.5291  0.2579
 4427TIP3    H130468   5.555   3.154   1.326 -1.8454 -0.0358  0.1738
 4427TIP3    H230469   5.603   3.063   1.437 -0.2841 -0.1077 -0.5361
 4428TIP3   OH230470   6.321   1.960   7.229 -0.5895  0.0450  0.3215
 4428TIP3    H130471   6.402   1.952   7.279  0.0640 -0.0514 -0.7175
 4428TIP3    H230472   6.332   2.039   7.177 -0.7249 -0.5119 -0.5745
 4429TIP3   OH230473   2.799   5.007   7.547  0.6261 -0.2613  0.3992
 4429TIP3    H130474   2.741   4.937   7.579 -0.0903 -0.6331 -1.5604
 4429TIP3    H230475   2.881   4.994   7.595 -0.2280 -1.0311  1.7206
 4430TIP3   OH230476   2.111   0.061   0.390 -0.2112 -0.1073  0.0502
 4430TIP3    H130477   2.099   0.104   0.305 -1.7348  0.2739  0.4218
 4430TIP3    H230478   2.189   0.103   0.427  0.0297  0.2530 -0.8263
 4431TIP3   OH230479   4.781   4.459   6.018 -0.0476 -0.2266 -0.3896
 4431TIP3    H130480   4.834   4.387   6.053 -0.0376 -0.8131 -1.5387
 4431TIP3    H230481   4.804   4.462   5.925 -1.9405 -0.4407 -0.9120
 4432TIP3   OH230482   2.070   1.077   4.766 -0.6664 -0.3572  0.5798
 4432TIP3    H130483   2.108   1.040   4.846 -1.4924 -1.6957  0.3626
 4432TIP3    H230484   1.978   1.093   4.788 -1.3366 -2.3115 -0.5760
 4433TIP3   OH230485   4.759   2.136   1.950 -0.6034 -0.0542  0.1180
 4433TIP3    H130486   4.751   2.226   1.983  1.0458  0.0092  0.4592
 4433TIP3    H230487   4.812   2.091   2.016 -0.6076 -1.0265 -0.5186
 4434TIP3   OH230488   3.006   5.093   0.260 -0.0668 -0.2162 -0.0083
 4434TIP3    H130489   3.053   5.156   0.206 -0.0668  0.2003  0.4718
 4434TIP3    H230490   3.055   5.011   0.250 -0.0111 -0.1188 -0.5561
 4435TIP3   OH230491   2.126   5.312   0.376  0.3186 -0.3331  0.1759
 4435TIP3    H130492   2.143   5.401   0.347  2.0722 -0.2965  1.1839
 4435TIP3    H230493   2.204   5.262   0.349 -0.8907 -1.7193 -0.9155
 4436TIP3   OH230494   3.872   0.285   7.300 -0.4703  0.2338  0.4442
 4436TIP3    H130495   3.876   0.364   7.354 -3.6289 -0.4234  1.8512
 4436TIP3    H230496   3.796   0.238   7.332  0.1222 -2.4316 -1.7131
 4437TIP3   OH230497   5.372   6.133   6.252 -0.7355  0.4724  0.3631
 4437TIP3    H130498   5.309   6.123   6.324 -1.7772  0.3152 -0.5395
 4437TIP3    H230499   5.318   6.157   6.177  0.3681  0.9480 -0.3029
 4438TIP3   OH230500   1.234   4.284   5.492  0.6479 -0.0898 -0.3795
 4438TIP3    H130501   1.226   4.363   5.438  0.3845 -0.7255 -1.2996
 4438TIP3    H230502   1.155   4.283   5.546  0.8120  0.4460 -0.1275
 4439TIP3   OH230503   2.222   0.477   1.428 -0.1076  0.1685  0.5765
 4439TIP3    H130504   2.258   0.565   1.440  0.0085  0.3658 -0.9502
 4439TIP3    H230505   2.133   0.491   1.398  0.3763 -0.1599 -1.1204
 4440TIP3   OH230506   6.579   3.201   0.944 -0.1704 -0.6212  0.8225
 4440TIP3    H130507   6.503   3.145   0.961 -0.1208 -0.8113  0.4073
 4440TIP3    H230508   6.613   3.221   1.031  0.1108 -1.6329  0.9493
 4441TIP3   OH230509   5.675   0.917   7.087 -0.2875  0.2495  0.2201
 4441TIP3    H130510   5.581   0.900   7.074 -0.0732  0.1393 -1.2262
 4441TIP3    H230511   5.708   0.938   7.000  1.2543 -0.7542  0.5356
 4442TIP3   OH230512   2.953   6.166   6.817  0.2074 -0.1382 -0.0415
 4442TIP3    H130513   2.974   6.099   6.881  1.2513  0.2062 -0.0049
 4442TIP3    H230514   2.890   6.125   6.758 -1.3837 -0.2091  1.6324
 4443TIP3   OH230515   4.142   3.252   7.376 -0.1393  0.1641  0.0285
 4443TIP3    H130516   4.079   3.193   7.419 -1.5491  0.4024 -1.5883
 4443TIP3    H230517   4.190   3.196   7.316 -0.7292  0.4567 -0.7266
 4444TIP3   OH230518   1.181   2.783   1.991  0.0962 -0.0238  0.5557
 4444TIP3    H130519   1.151   2.739   2.071 -3.0334  0.5471 -0.1436
 4444TIP3    H230520   1.153   2.725   1.920  1.0407  0.4073 -0.1837
 4445TIP3   OH230521   6.350   2.116   1.775 -0.0009  0.2290  0.4821
 4445TIP3    H130522   6.304   2.149   1.698  0.0222 -0.7945  0.0087
 4445TIP3    H230523   6.282   2.105   1.841 -0.3947 -0.9040 -0.0888
 4446TIP3   OH230524   4.214   4.548   0.764  0.2792 -0.6507 -0.7454
 4446TIP3    H130525   4.144   4.562   0.827  0.5499 -1.1817 -0.3235
 4446TIP3    H230526   4.294   4.542   0.817  1.1050  2.7342 -1.3740
 4447TIP3   OH230527   4.069   2.193   6.051  0.1958  0.1007  0.1608
 4447TIP3    H130528   4.054   2.271   6.104  0.8929 -0.1629  0.7677
 4447TIP3    H230529   4.100   2.226   5.967 -0.4549  0.5051  0.0703
 4448TIP3   OH230530   1.749   4.334   7.616 -0.6773  0.1017  0.2403
 4448TIP3    H130531   1.727   4.426   7.631 -0.4086  0.1648  0.2542
 4448TIP3    H230532   1.665   4.289   7.614 -1.0244  0.6905 -2.0766
 4449TIP3   OH230533   1.665   2.285   6.359 -0.0483  0.6623 -0.5394
 4449TIP3    H130534   1.678   2.316   6.449  2.0467 -0.2977 -0.4426
 4449TIP3    H230535   1.750   2.298   6.317 -0.8303  0.5572 -2.2189
 4450TIP3   OH230536   0.935   1.046   7.617  0.2179  0.0818  0.2623
 4450TIP3    H130537   0.982   1.117   7.662 -1.3079  1.7593 -0.6452
 4450TIP3    H230538   0.847   1.049   7.653 -0.1935 -0.5770 -0.6479
 4451TIP3   OH230539   1.437   3.319   0.983 -0.0507  0.2920 -0.1620
 4451TIP3    H130540   1.399   3.299   0.898  0.1305  0.7290 -0.3482
 4451TIP3    H230541   1.479   3.404   0.971 -1.8293  1.3979  0.9174
 4452TIP3   OH230542   5.155   6.273   1.070 -0.0730 -0.7474 -0.4224
 4452TIP3    H130543   5.100   6.321   1.008  1.2360  1.2464 -0.1220
 4452TIP3    H230544   5.197   6.205   1.016 -0.1317 -0.0409 -1.3915
 4453TIP3   OH230545   4.468   1.976   6.368  0.1063 -0.3077  0.1045
 4453TIP3    H130546   4.454   2.027   6.448  1.0271 -0.2775  0.2588
 4453TIP3    H230547   4.406   2.013   6.305  0.1394  0.4062  0.4770
 4454TIP3   OH230548   5.709   3.842   6.081 -0.1171  0.3722  0.2469
 4454TIP3    H130549   5.644   3.896   6.036 -0.1443 -0.7980 -1.2030
 4454TIP3    H230550   5.664   3.760   6.098  0.5198  0.0923  0.6197
 4455TIP3   OH230551   4.044   1.867   1.285 -0.5135 -0.4669  0.0438
 4455TIP3    H130552   4.046   1.898   1.194  1.3941  1.0941  0.5540
 4455TIP3    H230553   3.992   1.933   1.331  1.2673  0.6136  0.6274
 4456TIP3   OH230554   3.223   2.070   6.224  0.7855  0.3304  0.4728
 4456TIP3    H130555   3.147   2.112   6.264  0.1960 -0.6387  0.4123
 4456TIP3    H230556   3.217   2.093   6.131 -0.7127 -1.4900  0.0361
 4457TIP3   OH230557   5.265   4.650   6.506 -0.3771 -0.3798 -0.2304
 4457TIP3    H130558   5.328   4.594   6.460 -0.6792 -0.4303 -0.5852
 4457TIP3    H230559   5.259   4.729   6.451 -0.2096 -0.1396  0.0890
 4458TIP3   OH230560   5.744   1.015   0.610  0.3127  0.0838  0.4404
 4458TIP3    H130561   5.714   1.040   0.522 -0.0181  4.1090  1.4803
 4458TIP3    H230562   5.839   1.003   0.600  0.2211  0.1208 -0.5400
 4459TIP3   OH230563   2.601   3.572   6.873 -0.6008  0.3350  0.1776
 4459TIP3    H130564   2.627   3.610   6.957 -0.6197 -0.7636  0.7038
 4459TIP3    H230565   2.551   3.641   6.830 -0.9299  0.7848  1.2379
 4460TIP3   OH230566   2.485   1.873   0.858 -0.2472  0.2558  0.0914
 4460TIP3    H130567   2.509   1.870   0.766  0.5924  0.7440  0.2898
 4460TIP3    H230568   2.389   1.873   0.857 -0.3114 -1.9706 -0.6926
 4461TIP3   OH230569   2.819   3.118   1.148  0.6697  0.0193 -0.2972
 4461TIP3    H130570   2.776   3.200   1.124  1.4584  0.1406 -1.3710
 4461TIP3    H230571   2.849   3.132   1.238 -1.5967 -0.1221  0.5463
 4462TIP3   OH230572   6.369   2.635   6.335  0.2000 -0.2584  0.5101
 4462TIP3    H130573   6.375   2.687   6.255 -0.6075 -0.6182  0.1982
 4462TIP3    H230574   6.300   2.678   6.385 -2.2670 -2.3598 -0.8295
 4463TIP3   OH230575   1.374   1.841   1.579 -0.0517  0.2287  0.0449
 4463TIP3    H130576   1.341   1.929   1.566  1.8682  1.0194  0.2405
 4463TIP3    H230577   1.420   1.844   1.663 -0.4065 -1.1113  0.3240
 4464TIP3   OH230578   3.286   4.614   0.561  0.3240 -0.6045 -0.3600
 4464TIP3    H130579   3.356   4.619   0.626 -1.7474  0.0449  1.9924
 4464TIP3    H230580   3.271   4.705   0.535  0.2639 -0.7224 -0.7422
 4465TIP3   OH230581   3.362   3.295   1.258  0.2773  0.3635  0.6822
 4465TIP3    H130582   3.451   3.274   1.227  0.0994  0.4513  0.1040
 4465TIP3    H230583   3.320   3.210   1.269  0.2506  0.3397  0.4067
 4466TIP3   OH230584   1.353   1.431   1.240 -0.2899  0.3180 -0.0285
 4466TIP3    H130585   1.318   1.515   1.271  0.3449  0.3032  0.7802
 4466TIP3    H230586   1.333   1.370   1.311  0.3023  0.0544 -0.0837
 4467TIP3   OH230587   5.006   1.616   0.043 -0.0851  0.3062 -0.5087
 4467TIP3    H130588   4.927   1.669   0.038 -0.2876  0.0607  0.0985
 4467TIP3    H230589   5.000   1.556  -0.031 -0.2871  0.5304 -0.6739
 4468TIP3   OH230590   1.643   2.169   1.255 -0.3241  0.1588  0.1371
 4468TIP3    H130591   1.680   2.081   1.251 -1.4488 -0.3598  0.8135
 4468TIP3    H230592   1.650   2.202   1.165 -1.2936 -1.2320 -0.4852
 4469TIP3   OH230593   6.235   0.313   1.179 -0.1470 -0.3025 -0.2107
 4469TIP3    H130594   6.263   0.380   1.242 -0.4032 -0.2267 -0.1747
 4469TIP3    H230595   6.280   0.337   1.098 -0.9132  0.4251 -0.4294
 4470TIP3   OH230596   6.184   3.190   2.343 -0.2367  0.2971  0.2987
 4470TIP3    H130597   6.193   3.270   2.395 -0.7581 -0.3436  1.3944
 4470TIP3    H230598   6.126   3.134   2.394  1.6679 -1.5849  0.5419
 4471TIP3   OH230599   6.210   5.352   0.897 -0.3952  0.5948 -0.6006
 4471TIP3    H130600   6.273   5.401   0.844  1.4593 -1.0542 -0.0621
 4471TIP3    H230601   6.229   5.378   0.987 -0.1989 -0.1970 -0.4044
 4472TIP3   OH230602   3.941   0.932   7.112 -0.6764 -0.1855 -0.1130
 4472TIP3    H130603   3.973   0.842   7.121  0.2819 -0.1770 -2.5335
 4472TIP3    H230604   3.897   0.933   7.027 -2.6981  1.1240  0.8692
 4473TIP3   OH230605   1.948   5.880   1.653 -0.1293 -0.0373  0.4386
 4473TIP3    H130606   1.930   5.830   1.733 -0.6322  1.5243  1.3449
 4473TIP3    H230607   1.878   5.946   1.650  0.7043  0.8302 -0.5329
 4474TIP3   OH230608   2.193   6.002   0.158 -0.5181  0.0220 -0.0342
 4474TIP3    H130609   2.194   6.017   0.253  1.6262 -0.8811  0.1427
 4474TIP3    H230610   2.101   5.982   0.139 -1.3738  2.0489  1.4963
 4475TIP3   OH230611   2.153   0.776   1.356 -0.2985  0.1722 -0.0848
 4475TIP3    H130612   2.201   0.805   1.279 -2.3856  0.5853 -1.3193
 4475TIP3    H230613   2.153   0.851   1.415  0.2186  0.2878 -0.2332
 4476TIP3   OH230614   1.394   1.838   2.875  0.0759 -0.8820 -0.4754
 4476TIP3    H130615   1.489   1.853   2.878 -0.0406 -0.2520  0.8007
 4476TIP3    H230616   1.378   1.802   2.788  1.6856 -2.3698 -0.2202
 4477TIP3   OH230617   5.424   3.822   1.213  0.5640  0.2897 -0.0118
 4477TIP3    H130618   5.412   3.774   1.295 -0.1331  1.0111  0.3258
 4477TIP3    H230619   5.402   3.759   1.145  0.7381 -0.1959  0.3774
 4478TIP3   OH230620   0.224   4.813   1.083  0.1764  0.0255 -0.6625
 4478TIP3    H130621   0.250   4.724   1.106  3.2039  0.5039 -1.7713
 4478TIP3    H230622   0.245   4.865   1.161  0.5351  0.0826 -0.7942
 4479TIP3   OH230623   2.718   2.458   1.488 -0.0621  0.2237  0.3775
 4479TIP3    H130624   2.637   2.408   1.498  0.0094 -0.2311 -1.1482
 4479TIP3    H230625   2.739   2.487   1.577 -2.9629  2.0315  0.5900
 4480TIP3   OH230626   2.449   2.278   1.055 -0.0906 -0.4035 -0.3015
 4480TIP3    H130627   2.439   2.191   1.015 -0.6719  0.0247 -1.1088
 4480TIP3    H230628   2.405   2.338   0.995 -0.0786  0.4037  0.4648
 4481TIP3   OH230629   0.732   2.624   2.096 -0.0717 -0.2065  0.2039
 4481TIP3    H130630   0.714   2.548   2.151  0.6712 -0.4582  0.1043
 4481TIP3    H230631   0.799   2.673   2.144 -0.3869  0.2675  0.1603
 4482TIP3   OH230632   0.510   2.639   6.937  0.2286 -0.3824 -0.7563
 4482TIP3    H130633   0.465   2.614   7.017  1.3288 -0.1311 -0.0439
 4482TIP3    H230634   0.464   2.718   6.907  1.1281  0.7802  0.8042
 4483TIP3   OH230635   3.842   5.565   6.692 -0.1102 -0.3286 -0.5059
 4483TIP3    H130636   3.889   5.485   6.671 -0.0140 -0.0821 -1.2603
 4483TIP3    H230637   3.752   5.548   6.665 -0.2442 -0.4387  0.0022
 4484TIP3   OH230638   0.022   1.680   7.583  0.5030 -0.2017  0.0338
 4484TIP3    H130639   0.102   1.627   7.578 -0.5117 -1.7151 -0.4782
 4484TIP3    H230640  -0.010   1.667   7.672 -0.1612 -1.0795 -0.3278
 4485TIP3   OH230641   2.550   5.464   0.508  0.0762  0.1065  0.3490
 4485TIP3    H130642   2.533   5.375   0.539  1.7074 -0.5527 -0.5638
 4485TIP3    H230643   2.507   5.520   0.573 -2.1232 -1.3302  0.2187
 4486TIP3   OH230644   2.803   5.579   0.775  0.2940  0.2406 -0.1166
 4486TIP3    H130645   2.836   5.568   0.686  0.0768  0.2642 -0.2027
 4486TIP3    H230646   2.874   5.549   0.832  0.7157  0.9020 -0.2787
 4487TIP3   OH230647   1.547   1.336   2.912 -0.2777  0.0604  0.2688
 4487TIP3    H130648   1.494   1.292   2.845  0.1329 -1.9547  1.1867
 4487TIP3    H230649   1.483   1.374   2.973 -0.6495  1.6018 -1.0050
 4488TIP3   OH230650   5.490   0.135   7.741  0.0756  0.3964 -0.1400
 4488TIP3    H130651   5.475   0.229   7.753  0.2274  0.5004 -0.7072
 4488TIP3    H230652   5.517   0.104   7.827 -0.3186  0.8058  0.1370
 4489TIP3   OH230653   4.809   4.434   0.334 -0.1616 -0.2013  0.5828
 4489TIP3    H130654   4.757   4.354   0.339 -2.8323  1.2558 -1.3947
 4489TIP3    H230655   4.894   4.404   0.302 -0.1472 -2.4891  2.4321
 4490TIP3   OH230656   1.768   0.791   0.304 -0.7251  0.0454 -0.2333
 4490TIP3    H130657   1.744   0.860   0.367  1.8893 -0.8887  2.0006
 4490TIP3    H230658   1.828   0.834   0.243 -0.4240  0.1532  0.1331
 4491TIP3   OH230659   1.895   6.370   1.201  0.4748 -0.0681  0.2716
 4491TIP3    H130660   1.939   6.434   1.258 -0.0372 -0.4896  1.1790
 4491TIP3    H230661   1.832   6.422   1.151  0.3844  0.2095  0.6689
 4492TIP3   OH230662   3.377   2.599   0.620 -0.1592 -0.4685 -0.4958
 4492TIP3    H130663   3.384   2.592   0.715 -1.9537 -0.6879 -0.3386
 4492TIP3    H230664   3.466   2.613   0.590  0.3313  0.4664  1.2859
 4493TIP3   OH230665   0.885   0.424   0.742  0.3108  0.4603  0.0203
 4493TIP3    H130666   0.971   0.456   0.769  0.7422  0.5146 -1.3181
 4493TIP3    H230667   0.904   0.366   0.668 -0.5575 -2.0678  1.6753
 4494TIP3   OH230668   0.129   6.331   6.238  0.2544  0.2994 -0.7994
 4494TIP3    H130669   0.078   6.257   6.273 -0.7522  0.8687 -1.0215
 4494TIP3    H230670   0.177   6.364   6.314 -1.7968  1.4324  0.0999
 4495TIP3   OH230671   3.941   5.305   7.551 -0.1701  0.6427  0.3271
 4495TIP3    H130672   3.865   5.296   7.493  0.0356 -0.6156  0.2325
 4495TIP3    H230673   4.006   5.245   7.515 -0.1431 -0.4038  1.9985
 4496TIP3   OH230674   2.625   0.387   1.757  0.3056  0.0997 -0.6544
 4496TIP3    H130675   2.577   0.385   1.675 -0.1546 -0.4362 -0.3825
 4496TIP3    H230676   2.602   0.304   1.800 -1.8352  1.5886  1.3358
 4497TIP3   OH230677   1.250   5.984   0.425 -0.1799 -0.2709  0.1764
 4497TIP3    H130678   1.294   5.972   0.509  0.8396  1.8913  0.0200
 4497TIP3    H230679   1.161   6.012   0.448 -0.3656 -1.1292  0.5158
 4498TIP3   OH230680   5.469   6.451   6.111 -0.1231  0.1091 -0.1439
 4498TIP3    H130681   5.494   6.405   6.031  1.0107 -1.7861  1.2163
 4498TIP3    H230682   5.375   6.436   6.120  0.2489 -2.2606  0.3825
 4499TIP3   OH230683   0.067   2.537   1.182 -0.3351 -0.7783 -0.1531
 4499TIP3    H130684  -0.015   2.521   1.135 -0.4263  2.8345 -1.5691
 4499TIP3    H230685   0.040   2.585   1.260  0.3541 -0.0968 -0.3251
 4500TIP3   OH230686   2.195   0.406   5.556  0.2126  0.3674 -0.7286
 4500TIP3    H130687   2.273   0.427   5.506  1.1094 -2.4646 -0.6981
 4500TIP3    H230688   2.221   0.418   5.648  1.0903 -1.7499 -0.6527
 4501TIP3   OH230689   3.096   2.088   0.239  0.1955 -0.2273 -0.2568
 4501TIP3    H130690   3.171   2.031   0.224  0.4183  0.0749 -0.2799
 4501TIP3    H230691   3.084   2.088   0.334  0.3431 -0.1201 -0.2387
 4502TIP3   OH230692   1.973   0.334   1.438  0.2527  0.2761  0.4019
 4502TIP3    H130693   1.929   0.417   1.420 -2.5112 -1.0249  0.6987
 4502TIP3    H230694   1.981   0.292   1.352  1.6722  0.8114  0.2473
 4503TIP3   OH230695   1.685   3.873   2.041  0.0860  0.5420 -0.1421
 4503TIP3    H130696   1.623   3.914   1.980  0.0892  1.6170  0.5384
 4503TIP3    H230697   1.667   3.916   2.125  1.5316  0.6535  0.1398
 4504TIP3   OH230698   1.506   6.253   1.288 -0.1607 -0.2977 -0.2682
 4504TIP3    H130699   1.505   6.159   1.309 -0.0039  0.2784  2.9515
 4504TIP3    H230700   1.425   6.286   1.327  0.0394  0.9890 -0.9006
 4505TIP3   OH230701   4.912   0.998   1.196 -0.6082 -0.6196  0.0922
 4505TIP3    H130702   4.851   1.050   1.249 -0.3748 -1.1574  0.9173
 4505TIP3    H230703   4.871   0.911   1.192 -0.7454 -0.5145 -0.8363
 4506TIP3   OH230704   1.787   5.004   6.158 -0.4546 -0.0357 -0.1225
 4506TIP3    H130705   1.782   5.091   6.118 -0.2401 -0.5050 -1.1933
 4506TIP3    H230706   1.813   4.946   6.086 -2.1413 -1.2533  0.2141
 4507TIP3   OH230707   0.857   2.325   7.331 -0.2108  0.1075 -0.1582
 4507TIP3    H130708   0.890   2.373   7.407 -1.8107  2.4070 -0.8365
 4507TIP3    H230709   0.932   2.321   7.271  0.1617  1.0707  0.2251
 4508TIP3   OH230710   0.271   4.978   2.151  0.4665  0.1361  0.2520
 4508TIP3    H130711   0.208   4.908   2.169  0.0322  0.5069  0.1800
 4508TIP3    H230712   0.243   5.051   2.206  1.3295  0.0378  0.8633
 4509TIP3   OH230713   4.752   3.678   0.016 -0.1249  0.1218  0.1651
 4509TIP3    H130714   4.686   3.733  -0.025 -0.2971 -0.1919  0.0173
 4509TIP3    H230715   4.728   3.589  -0.009  0.2939 -0.0024  0.1959
 4510TIP3   OH230716   2.746   1.798   6.256  0.7338  0.1732  0.2619
 4510TIP3    H130717   2.741   1.847   6.338 -1.6448 -1.3899  1.1506
 4510TIP3    H230718   2.712   1.859   6.190 -0.7282  0.2787  1.0820
 4511TIP3   OH230719   1.729   2.022   6.525  0.2358  0.2101  0.1434
 4511TIP3    H130720   1.678   2.052   6.449  0.5984  0.7009  0.0906
 4511TIP3    H230721   1.676   2.048   6.600 -0.9647 -1.7726  0.0624
 4512TIP3   OH230722   5.315   1.720   1.721 -0.2569 -0.4203  0.6819
 4512TIP3    H130723   5.221   1.739   1.715  0.0136  1.5014  1.7191
 4512TIP3    H230724   5.357   1.797   1.684  0.9446 -1.3244  0.0914
 4513TIP3   OH230725   5.540   2.853   6.411  0.7513  0.2156  0.0110
 4513TIP3    H130726   5.633   2.861   6.433  0.6707  1.0719  0.0504
 4513TIP3    H230727   5.529   2.760   6.389  1.6619  0.1560 -0.2357
 4514TIP3   OH230728   2.524   0.304   7.353  1.1747  0.1142 -0.6887
 4514TIP3    H130729   2.445   0.262   7.317  0.9249  2.2242 -2.8102
 4514TIP3    H230730   2.491   0.366   7.417  1.3196 -0.5098  0.0139
 4515TIP3   OH230731   0.654   1.260   5.751  0.2733  0.0951  0.0335
 4515TIP3    H130732   0.591   1.192   5.730  0.0843  0.5177 -0.7970
 4515TIP3    H230733   0.601   1.334   5.782  0.5230 -0.4067  1.7888
 4516TIP3   OH230734   1.099   4.319   7.734  0.8126 -0.1066  0.1661
 4516TIP3    H130735   1.134   4.246   7.683 -0.5668 -1.0067  0.4379
 4516TIP3    H230736   1.078   4.280   7.819 -2.7139 -0.2004 -0.5936
 4517TIP3   OH230737   0.202   3.034   1.152 -0.5151 -0.5991  0.4714
 4517TIP3    H130738   0.220   2.967   1.086  1.1785 -1.3962  1.6873
 4517TIP3    H230739   0.287   3.071   1.173 -0.8607 -1.0556  2.9200
 4518TIP3   OH230740   3.236   0.803   7.682  0.3678  0.0385 -0.2879
 4518TIP3    H130741   3.148   0.820   7.715 -0.0833  1.9534 -2.2476
 4518TIP3    H230742   3.223   0.783   7.589  1.9418 -0.4769 -0.4276
 4519TIP3   OH230743   2.159   5.701   5.881 -0.1228 -0.4581 -0.0580
 4519TIP3    H130744   2.132   5.685   5.790  0.8492 -2.7702 -0.0017
 4519TIP3    H230745   2.227   5.767   5.874  0.9517 -1.6171 -1.2245
 4520TIP3   OH230746   5.902   2.099   0.477  0.3736 -0.8568 -0.3023
 4520TIP3    H130747   5.850   2.104   0.557 -2.2699  0.7567 -1.9581
 4520TIP3    H230748   5.941   2.186   0.468 -0.0003 -0.7679 -1.1436
 4521TIP3   OH230749   3.603   2.676   2.121 -0.1610  0.2885 -0.4132
 4521TIP3    H130750   3.595   2.581   2.113  1.0824  0.2476 -1.4745
 4521TIP3    H230751   3.513   2.707   2.122 -0.5786 -0.8334 -0.9677
 4522TIP3   OH230752   3.643   5.439   6.891  0.1679 -0.1728 -0.6142
 4522TIP3    H130753   3.575   5.382   6.926  1.6901 -2.2680 -0.8619
 4522TIP3    H230754   3.654   5.507   6.958 -0.4145 -1.2385  0.6040
 4523TIP3   OH230755   5.472   3.271   7.738  0.1273  0.5665  0.6343
 4523TIP3    H130756   5.467   3.176   7.727  0.0830  0.5989  0.3909
 4523TIP3    H230757   5.407   3.307   7.678  1.8905  0.8813 -1.1708
 4524TIP3   OH230758   1.898   3.639   2.413 -0.1268  0.3305  0.2577
 4524TIP3    H130759   1.820   3.692   2.397  0.5179  1.0719 -0.5368
 4524TIP3    H230760   1.872   3.550   2.388 -0.7010  0.5761 -0.0357
 4525TIP3   OH230761   4.358   3.561   0.657  0.0957  0.1578 -0.0212
 4525TIP3    H130762   4.413   3.535   0.583  0.9108 -0.5342  0.8021
 4525TIP3    H230763   4.335   3.479   0.701 -1.0636  0.4933  0.0298
 4526TIP3   OH230764   0.196   1.628   6.568  0.0446 -0.1067 -0.1625
 4526TIP3    H130765   0.287   1.639   6.596 -0.3890 -1.0062  1.7599
 4526TIP3    H230766   0.163   1.717   6.556  0.9133  0.2446 -0.0140
 4527TIP3   OH230767   1.835   3.391   0.160 -0.3447  0.2623 -0.1028
 4527TIP3    H130768   1.880   3.400   0.076 -1.7414 -0.1008 -0.9200
 4527TIP3    H230769   1.847   3.299   0.184 -0.9568  0.0779 -0.5012
 4528TIP3   OH230770   3.483   2.498   1.612  0.4895  0.0065 -0.0749
 4528TIP3    H130771   3.412   2.493   1.676  1.1614  1.3760  0.8261
 4528TIP3    H230772   3.524   2.412   1.614  2.0242  0.6770  3.2195
 4529TIP3   OH230773   6.139   2.827   6.586 -0.0235  0.4707  0.0220
 4529TIP3    H130774   6.092   2.803   6.506 -1.2527  1.4007  0.4479
 4529TIP3    H230775   6.124   2.921   6.596  3.2524  1.1989 -0.6606
 4530TIP3   OH230776   2.280   4.918   0.864  0.4568  0.5538  0.4528
 4530TIP3    H130777   2.299   5.006   0.832 -1.8264  0.2596 -2.1001
 4530TIP3    H230778   2.207   4.931   0.925  0.6653  0.5054  0.7128
 4531TIP3   OH230779   2.518   2.318   2.208  0.4610 -0.1207 -0.4420
 4531TIP3    H130780   2.550   2.262   2.138 -2.5707 -0.0093 -2.1085
 4531TIP3    H230781   2.579   2.391   2.211  0.2811  0.2874 -3.6192
 4532TIP3   OH230782   4.085   6.073   7.430  0.2417 -0.7124  0.9449
 4532TIP3    H130783   4.028   6.108   7.362 -1.2244 -1.7178  1.6040
 4532TIP3    H230784   4.153   6.140   7.441 -0.5162  0.2937 -0.2157
 4533TIP3   OH230785   3.407   1.168   0.276  0.5432 -0.0247 -0.2876
 4533TIP3    H130786   3.471   1.232   0.306  0.1040 -0.0885  0.8266
 4533TIP3    H230787   3.352   1.217   0.214  0.5098  0.5407  0.1812
 4534TIP3   OH230788   3.953   0.709   1.512 -0.0817 -0.5051 -0.2616
 4534TIP3    H130789   3.947   0.784   1.452  0.4209 -0.5817 -0.4168
 4534TIP3    H230790   3.870   0.708   1.558 -0.0648  0.2007 -0.2042
 4535TIP3   OH230791   1.462   5.598   7.667  0.8829  0.2546  0.4506
 4535TIP3    H130792   1.484   5.557   7.584  0.1148  1.0525 -0.1590
 4535TIP3    H230793   1.470   5.692   7.651 -0.8101  0.4955  0.8044
 4536TIP3   OH230794   2.624   1.013   0.357 -0.0281  0.3032  0.7576
 4536TIP3    H130795   2.650   1.104   0.372  2.2406  0.1394 -1.4214
 4536TIP3    H230796   2.555   1.019   0.290 -0.7352  0.4240  1.4748
 4537TIP3   OH230797   6.458   2.778   0.090  0.4154  0.2220  0.2548
 4537TIP3    H130798   6.370   2.795   0.124  0.4521  0.8406  0.0587
 4537TIP3    H230799   6.447   2.703   0.032  0.3004 -0.6830  1.4120
 4538TIP3   OH230800   0.379   4.825   6.622 -0.0680  0.0656 -0.1168
 4538TIP3    H130801   0.422   4.862   6.545  0.2766 -1.7217 -0.8382
 4538TIP3    H230802   0.304   4.883   6.637 -0.9282 -0.2518 -2.6437
 4539TIP3   OH230803   2.206   0.446   2.255 -0.2870  0.3386  0.4861
 4539TIP3    H130804   2.187   0.362   2.214 -1.4863 -0.7644  3.0618
 4539TIP3    H230805   2.266   0.490   2.194  2.2495 -3.2776  0.0395
 4540TIP3   OH230806   1.944   3.494   7.035 -0.4467 -0.5389  0.5808
 4540TIP3    H130807   1.945   3.436   7.110  0.2140  0.1661  1.1323
 4540TIP3    H230808   2.033   3.528   7.029 -0.4002 -0.8352 -0.7304
 4541TIP3   OH230809   4.212   6.395   1.027 -0.1103  0.3779  0.1573
 4541TIP3    H130810   4.244   6.471   0.979 -1.4439  0.5576 -0.5072
 4541TIP3    H230811   4.119   6.413   1.040 -0.2394 -0.7089  0.8315
 4542TIP3   OH230812   6.047   0.415   7.600 -0.2356 -0.1937 -0.4804
 4542TIP3    H130813   6.136   0.383   7.581 -0.2087 -1.2408  1.1972
 4542TIP3    H230814   6.009   0.347   7.656 -0.7069  2.0361  2.0860
 4543TIP3   OH230815   1.479   5.104   6.127  0.1687  0.0489 -0.3889
 4543TIP3    H130816   1.516   5.181   6.084 -1.2895  1.0585  0.0880
 4543TIP3    H230817   1.452   5.047   6.055  0.4050  0.4046 -0.7605
 4544TIP3   OH230818   3.850   1.034   1.730 -0.5946  0.0720  0.2718
 4544TIP3    H130819   3.775   1.016   1.675  0.7939 -0.6632 -1.4856
 4544TIP3    H230820   3.883   0.948   1.756  1.2167  0.2069 -1.3101
 4545TIP3   OH230821   2.119   5.736   7.515  0.3283  0.1205 -0.0158
 4545TIP3    H130822   2.154   5.762   7.430 -0.2540  0.7728 -0.0581
 4545TIP3    H230823   2.124   5.640   7.513  0.6123  0.1371 -0.6546
 4546TIP3   OH230824   1.460   1.800   0.431 -0.6894 -0.5095 -0.1511
 4546TIP3    H130825   1.510   1.747   0.369  1.2916  0.3399  0.6484
 4546TIP3    H230826   1.441   1.740   0.503  1.5686 -0.2507  0.7629
 4547TIP3   OH230827   4.465   4.745   1.602  0.2893 -0.6022 -0.4758
 4547TIP3    H130828   4.484   4.836   1.626  2.8143 -1.2179  0.1567
 4547TIP3    H230829   4.428   4.751   1.514  1.1116  1.0189 -0.7561
 4548TIP3   OH230830   0.912   4.763   1.380  0.0528 -0.1087 -0.0274
 4548TIP3    H130831   0.818   4.753   1.364  0.3814 -1.7772 -1.1326
 4548TIP3    H230832   0.924   4.732   1.470 -0.5936  1.2731  0.5733
 4549TIP3   OH230833   2.415   5.740   0.573  0.2424 -0.7115 -0.1493
 4549TIP3    H130834   2.464   5.803   0.626 -0.1732  1.1787 -1.8829
 4549TIP3    H230835   2.347   5.707   0.631 -0.4676  1.5945  0.4287
 4550TIP3   OH230836   3.577   4.286   0.053 -0.0761 -0.2302 -0.1652
 4550TIP3    H130837   3.609   4.365   0.010  1.0081 -0.2029  0.6452
 4550TIP3    H230838   3.626   4.214   0.012 -0.7754 -0.4534 -0.6269
 4551TIP3   OH230839   3.348   3.012   1.306 -0.0082 -0.3211  0.2762
 4551TIP3    H130840   3.440   3.040   1.303 -0.0260  0.1499  2.4956
 4551TIP3    H230841   3.349   2.923   1.269  0.6243  1.0523 -3.5159
 4552TIP3   OH230842   5.947   6.227   7.482 -0.6178  0.2014  0.2067
 4552TIP3    H130843   6.008   6.156   7.464 -0.3216 -0.0104  1.8610
 4552TIP3    H230844   5.958   6.287   7.409  1.2721 -0.0498  0.2243
 4553TIP3   OH230845   3.184   3.306   0.390 -0.0225  0.5290  0.0355
 4553TIP3    H130846   3.226   3.226   0.421  0.5626 -0.5162 -3.1682
 4553TIP3    H230847   3.131   3.335   0.465  1.7538 -1.3551  2.1875
 4554TIP3   OH230848   4.540   1.982   5.832  0.2571  0.3001 -0.3580
 4554TIP3    H130849   4.592   2.054   5.869 -0.1681  0.9359 -0.9546
 4554TIP3    H230850   4.605   1.920   5.799  0.6314  0.3159  0.3237
 4555TIP3   OH230851   2.263   4.008   1.544 -0.1757  0.2287  0.4866
 4555TIP3    H130852   2.292   4.096   1.520  3.0356 -1.1644 -1.4952
 4555TIP3    H230853   2.325   3.980   1.611 -1.1360 -0.5611  1.0682
 4556TIP3   OH230854   3.562   1.756   1.522 -0.3040  0.4688  0.0413
 4556TIP3    H130855   3.612   1.691   1.571  0.7739  0.9527 -0.3958
 4556TIP3    H230856   3.470   1.730   1.535  0.0766 -0.8474  0.2707
 4557TIP3   OH230857   5.164   1.182   0.038  0.1693 -0.5078 -0.1783
 4557TIP3    H130858   5.086   1.228   0.069 -1.4465 -2.2392 -1.4573
 4557TIP3    H230859   5.162   1.098   0.083  0.6634 -1.0285 -1.1019
 4558TIP3   OH230860   6.448   4.537   0.604  0.1016  0.3554 -0.4677
 4558TIP3    H130861   6.358   4.504   0.605 -0.5806  2.1318  0.5843
 4558TIP3    H230862   6.443   4.622   0.648  2.6276 -0.3324  1.3510
 4559TIP3   OH230863   2.601   3.963   1.175 -0.9984  0.0991 -0.4666
 4559TIP3    H130864   2.639   3.915   1.101 -0.6856  1.7570 -1.4191
 4559TIP3    H230865   2.522   4.004   1.139  0.1737  2.5155 -0.4930
 4560TIP3   OH230866   1.757   1.504   7.381  0.5084  0.3988 -0.1992
 4560TIP3    H130867   1.723   1.479   7.467  0.0504  0.2020 -0.4360
 4560TIP3    H230868   1.682   1.494   7.322  0.8529  0.4294 -0.6409
 4561TIP3   OH230869   3.748   5.752   1.373 -0.2861 -0.7306 -0.1130
 4561TIP3    H130870   3.827   5.768   1.425 -0.0804  0.7824 -0.8534
 4561TIP3    H230871   3.680   5.733   1.438  0.3068 -0.3844  0.6251
 4562TIP3   OH230872   5.424   3.544   5.967  0.3312 -0.6049 -0.0720
 4562TIP3    H130873   5.436   3.454   5.938  1.7663  0.2276 -2.3514
 4562TIP3    H230874   5.498   3.561   6.025  1.7019 -0.1312 -1.8633
 4563TIP3   OH230875   6.580   2.056   0.901 -0.4484  0.3989  0.7678
 4563TIP3    H130876   6.511   2.087   0.842 -0.7756 -0.0219  0.9242
 4563TIP3    H230877   6.618   2.136   0.937  0.6563  0.7343 -1.0130
 4564TIP3   OH230878   4.843   1.535   0.229 -0.4704  0.1950 -0.2698
 4564TIP3    H130879   4.795   1.499   0.154  1.9316 -3.1449 -0.4247
 4564TIP3    H230880   4.921   1.576   0.190 -0.7435  1.2878  0.2800
 4565TIP3   OH230881   4.428   4.130   6.951 -0.4935 -0.5277 -0.2315
 4565TIP3    H130882   4.399   4.172   7.032 -0.3181 -0.2506 -0.3145
 4565TIP3    H230883   4.456   4.201   6.895  1.4616 -0.8355  0.2742
 4566TIP3   OH230884   1.963   5.837   0.682  0.3282  0.2951  0.4662
 4566TIP3    H130885   1.915   5.856   0.763  1.0854  2.3791  0.4822
 4566TIP3    H230886   1.943   5.911   0.625  1.7125  0.0588 -0.3668
 4567TIP3   OH230887   0.887   0.143   0.022  0.2586 -0.1965 -0.6453
 4567TIP3    H130888   0.961   0.147   0.082  0.9727  0.3726 -1.5317
 4567TIP3    H230889   0.846   0.058   0.039  1.4288 -0.7476 -0.4937
 4568TIP3   OH230890   1.682   6.049   1.579  0.5166  0.2748 -0.1843
 4568TIP3    H130891   1.626   6.060   1.656  0.3302  0.2167 -0.3116
 4568TIP3    H230892   1.642   5.977   1.530 -0.3405  1.3921 -1.1895
 4569TIP3   OH230893   2.351   4.052   0.794  0.1729 -0.1099 -0.1638
 4569TIP3    H130894   2.290   4.011   0.732  0.2048 -0.1507 -0.1679
 4569TIP3    H230895   2.427   3.994   0.795 -0.1107 -0.4745  0.4404
 4570TIP3   OH230896   3.722   2.883   7.352  0.0061  0.0932 -0.2317
 4570TIP3    H130897   3.662   2.855   7.421 -1.0457  0.0267 -1.1493
 4570TIP3    H230898   3.673   2.948   7.302 -0.0875 -1.3932 -2.2023
 4571TIP3   OH230899   1.226   5.886   6.073 -0.5725 -0.3752 -0.6181
 4571TIP3    H130900   1.200   5.838   5.994 -1.9123 -0.9897  0.1658
 4571TIP3    H230901   1.166   5.961   6.076 -1.6776 -1.2734  0.6878
 4572TIP3   OH230902   4.569   0.593   1.667 -0.2757  0.6414  0.8086
 4572TIP3    H130903   4.632   0.522   1.680 -0.0046 -0.1617 -3.5964
 4572TIP3    H230904   4.623   0.669   1.643 -0.8104  1.3320  1.6953
 4573TIP3   OH230905   2.253   5.366   6.207  0.1861 -0.0134  0.7088
 4573TIP3    H130906   2.279   5.359   6.115 -1.9724  1.0134 -0.0467
 4573TIP3    H230907   2.174   5.313   6.214 -1.3209  2.1609  1.2108
 4574TIP3   OH230908   4.947   0.020   1.647  0.0712  0.2529 -0.3027
 4574TIP3    H130909   5.018   0.004   1.584  0.0431 -1.9977  0.1314
 4574TIP3    H230910   4.921  -0.068   1.675 -1.6677  1.1112  0.9239
 4575TIP3   OH230911   5.591   0.668   0.201  0.4966 -0.1078  0.3058
 4575TIP3    H130912   5.591   0.638   0.292  0.7127 -0.6534  0.1245
 4575TIP3    H230913   5.682   0.694   0.184  0.9130 -1.8304 -0.3468
 4576TIP3   OH230914   2.578   2.684   6.933  0.0612 -0.0476 -0.3559
 4576TIP3    H130915   2.671   2.662   6.940 -0.3226 -1.5420  0.8249
 4576TIP3    H230916   2.573   2.776   6.959  1.1721 -0.0349 -0.1104
 4577TIP3   OH230917   5.010   5.419   0.697  0.2056 -0.3934  0.3084
 4577TIP3    H130918   4.930   5.437   0.747 -1.5891  1.7412 -2.9232
 4577TIP3    H230919   5.010   5.324   0.685 -2.6423 -0.3892 -0.5926
 4578TIP3   OH230920   4.378   5.830   1.809  0.1432 -0.0919  0.4596
 4578TIP3    H130921   4.289   5.839   1.843  1.1948  1.4354  3.1400
 4578TIP3    H230922   4.401   5.917   1.778  0.0264 -0.9680 -2.3381
 4579TIP3   OH230923   4.062   1.374   7.163  0.4820 -0.4517 -0.1069
 4579TIP3    H130924   4.060   1.290   7.209  0.4938  0.4514  1.6342
 4579TIP3    H230925   4.142   1.416   7.194 -0.9941  1.4179  1.3796
 4580TIP3   OH230926   1.831   1.806   0.058  0.5101  0.1673 -0.0527
 4580TIP3    H130927   1.802   1.797  -0.033  0.0942 -0.5068  0.1383
 4580TIP3    H230928   1.895   1.876   0.055  0.0046  0.6226 -0.7581
 4581TIP3   OH230929   1.345   5.391   0.350 -0.3484  0.1736  0.1092
 4581TIP3    H130930   1.356   5.402   0.445  1.0300 -1.9475  0.2774
 4581TIP3    H230931   1.401   5.458   0.311 -1.9712  1.9771  0.7011
 4582TIP3   OH230932   2.685   4.044   7.141  0.0527  0.4103 -0.1914
 4582TIP3    H130933   2.693   4.025   7.047  0.7821 -1.3657  0.1923
 4582TIP3    H230934   2.658   3.960   7.180  0.3395  0.9703  1.2582
 4583TIP3   OH230935   6.109   0.718   5.879  0.6457 -0.0048  1.1815
 4583TIP3    H130936   6.053   0.747   5.951  1.2474  1.2409  1.1652
 4583TIP3    H230937   6.162   0.794   5.857 -0.2858  0.0126 -1.3257
 4584TIP3   OH230938   1.482   0.373   7.440 -0.2039 -0.4416 -0.0983
 4584TIP3    H130939   1.482   0.293   7.388 -0.9157 -0.9637  0.6741
 4584TIP3    H230940   1.561   0.420   7.413 -2.1862  1.0117 -4.1393
 4585TIP3   OH230941   2.025   6.246   6.293  0.2667  0.5652 -0.2579
 4585TIP3    H130942   2.100   6.251   6.234  1.0644  0.9568  0.7613
 4585TIP3    H230943   1.970   6.176   6.256  1.6250 -0.4318 -0.4551
 4586TIP3   OH230944   5.444   0.576   0.648 -0.4970  0.0890 -0.3652
 4586TIP3    H130945   5.443   0.628   0.728 -0.3751  0.6436 -0.7222
 4586TIP3    H230946   5.485   0.493   0.675 -1.2964 -0.0912  0.3573
 4587TIP3   OH230947   5.781   1.352   6.461 -0.1553 -0.1139  0.1939
 4587TIP3    H130948   5.746   1.410   6.528 -3.0126 -0.4513 -0.8535
 4587TIP3    H230949   5.725   1.274   6.465 -1.6228  0.4975 -3.5266
 4588TIP3   OH230950   3.579   1.675   0.608 -0.1213  0.1412 -0.5676
 4588TIP3    H130951   3.675   1.672   0.607 -0.1247 -0.3764 -0.0487
 4588TIP3    H230952   3.558   1.725   0.687 -0.2779  0.0475 -0.5503
 4589TIP3   OH230953   0.926   2.385   0.149  0.0246  0.3831 -0.1462
 4589TIP3    H130954   0.996   2.426   0.098  0.2345 -0.3234 -0.4404
 4589TIP3    H230955   0.846   2.425   0.116  0.2595  0.9104 -0.0871
 4590TIP3   OH230956   1.021   1.872   7.110  0.1233 -0.5411  0.7045
 4590TIP3    H130957   1.007   1.817   7.187  0.6651 -0.5854  0.7730
 4590TIP3    H230958   1.115   1.887   7.108  0.3041 -1.6758 -0.7163
 4591TIP3   OH230959   0.306   1.437   1.237  0.0131  0.6410 -0.2402
 4591TIP3    H130960   0.285   1.420   1.145 -0.1914  1.0854 -0.2785
 4591TIP3    H230961   0.293   1.531   1.248  0.2002  0.6190  0.2033
 4592TIP3   OH230962   1.191   5.116   6.756  0.4523  0.0970  0.8399
 4592TIP3    H130963   1.230   5.063   6.826 -0.3689  0.0510  1.2702
 4592TIP3    H230964   1.266   5.152   6.709  1.1839 -3.5736 -1.1778
 4593TIP3   OH230965   0.887   1.250   1.603  0.2860 -0.1450 -0.1990
 4593TIP3    H130966   0.839   1.227   1.682 -0.0116  1.5000  0.1180
 4593TIP3    H230967   0.836   1.319   1.562  1.8458  0.9726 -0.3625
 4594TIP3   OH230968   0.199   5.346   0.228 -0.2397 -0.3829  0.4849
 4594TIP3    H130969   0.254   5.422   0.247  0.0887 -1.1540  2.9239
 4594TIP3    H230970   0.162   5.365   0.141  1.0108  1.8252  0.3504
 4595TIP3   OH230971   3.356   1.380   6.466  0.4668 -0.1543 -0.2053
 4595TIP3    H130972   3.378   1.306   6.523 -1.0762 -0.8042 -0.4043
 4595TIP3    H230973   3.341   1.340   6.380  1.6816  0.6788 -0.8495
 4596TIP3   OH230974   4.204   0.554   6.723  0.1445  0.2044  0.4962
 4596TIP3    H130975   4.224   0.510   6.640 -2.6079  0.1168 -0.2415
 4596TIP3    H230976   4.195   0.482   6.786  1.1672  0.1860  0.6325
 4597TIP3   OH230977   5.309   2.385   5.885  0.0946  0.0313 -0.1802
 4597TIP3    H130978   5.294   2.305   5.835 -0.8741 -0.2420  0.5067
 4597TIP3    H230979   5.393   2.371   5.928  0.4138 -0.1879 -0.8738
 4598TIP3   OH230980   1.020   2.619   6.831 -0.5508 -0.2471  0.4244
 4598TIP3    H130981   0.952   2.602   6.896 -1.7540  0.0954 -0.7207
 4598TIP3    H230982   1.010   2.549   6.766 -0.1903  0.1504 -0.0683
 4599TIP3   OH230983   3.513   6.258   1.333 -0.6513  0.4495 -0.0165
 4599TIP3    H130984   3.537   6.187   1.393 -0.4120 -0.9658 -1.6819
 4599TIP3    H230985   3.597   6.290   1.299 -0.7970  0.9104  0.0573
 4600TIP3   OH230986   4.270   0.378   0.035 -0.2479 -0.2356 -0.1027
 4600TIP3    H130987   4.278   0.341   0.123 -1.9774 -0.6857 -0.1010
 4600TIP3    H230988   4.322   0.458   0.038  1.1018 -1.1052  0.7963
 4601TIP3   OH230989   1.153   3.980   6.416 -0.2582  0.1650  0.7766
 4601TIP3    H130990   1.068   3.998   6.376  0.1953  1.8945  0.5082
 4601TIP3    H230991   1.210   3.956   6.343 -0.0692  0.7836  0.7203
 4602TIP3   OH230992   0.149   3.731   1.094 -0.6251  0.1813  0.5202
 4602TIP3    H130993   0.161   3.746   1.188  0.8996  0.8384  0.2574
 4602TIP3    H230994   0.150   3.818   1.055 -1.7410 -0.0543 -0.0821
 4603TIP3   OH230995   2.378   1.999   6.281 -0.2276 -0.2677 -0.2314
 4603TIP3    H130996   2.425   1.977   6.201 -0.2704 -0.0908 -0.3059
 4603TIP3    H230997   2.296   1.949   6.275 -0.9233  0.9343 -1.0422
 4604TIP3   OH230998   4.075   0.576   2.164 -0.2182 -0.0356  0.6494
 4604TIP3    H130999   4.000   0.602   2.218 -0.9197  1.4802 -0.9567
 4604TIP3    H231000   4.050   0.490   2.129 -0.7624 -0.0012  0.9398
 4605TIP3   OH231001   2.755   0.695   0.884  0.5646 -0.1069  0.0752
 4605TIP3    H131002   2.719   0.611   0.915 -0.6424 -0.6608 -2.5467
 4605TIP3    H231003   2.808   0.671   0.808 -0.7520  1.5892 -1.4427
 4606TIP3   OH231004   3.264   1.308   7.297 -0.4386  0.3318  0.6308
 4606TIP3    H131005   3.356   1.280   7.292 -0.5189  0.1592  0.0267
 4606TIP3    H231006   3.235   1.280   7.383  0.5932  1.9848  1.5705
 4607TIP3   OH231007   4.097   0.600   0.351 -0.2382  0.2404  0.3681
 4607TIP3    H131008   4.158   0.665   0.385 -1.5099  0.7020  1.8910
 4607TIP3    H231009   4.146   0.518   0.350  1.1481  1.0543 -0.8396
 4608TIP3   OH231010   3.184   4.801   2.107  0.0588 -0.0436  0.4863
 4608TIP3    H131011   3.150   4.882   2.146  1.1033  1.0834 -0.8170
 4608TIP3    H231012   3.165   4.811   2.013  0.6068 -1.1086  0.2496
 4609TIP3   OH231013   6.235   4.055   0.179 -0.0865 -0.2837 -0.1158
 4609TIP3    H131014   6.282   4.112   0.239 -0.1328 -0.2370 -0.1241
 4609TIP3    H231015   6.150   4.096   0.168 -0.1163 -0.3487 -0.1296
 4610TIP3   OH231016   4.597   5.130   6.696  0.1480  0.1533  0.4176
 4610TIP3    H131017   4.505   5.107   6.684  0.1327 -0.6439  1.8674
 4610TIP3    H231018   4.627   5.155   6.608 -0.4587 -3.2001 -0.9034
 4611TIP3   OH231019   2.303   1.976   6.948 -0.5640 -0.2162  0.1269
 4611TIP3    H131020   2.363   1.991   7.021 -0.1480 -1.7531  0.1403
 4611TIP3    H231021   2.360   1.958   6.874 -0.9966  0.6695 -0.4330
 4612TIP3   OH231022   4.399   5.878   0.227 -0.0081  0.1814  0.1100
 4612TIP3    H131023   4.366   5.880   0.137 -0.2004 -1.3173  0.1122
 4612TIP3    H231024   4.471   5.941   0.228  1.2168 -1.0836 -1.6301
 4613TIP3   OH231025   5.911   3.034   0.956  0.1955 -0.4921  0.4122
 4613TIP3    H131026   5.881   2.943   0.962 -0.0743 -0.4305  0.0340
 4613TIP3    H231027   5.851   3.075   0.894  0.8582 -0.2863 -0.1069
 4614TIP3   OH231028   3.418   1.001   6.837 -0.3309  0.2531 -0.1061
 4614TIP3    H131029   3.427   0.988   6.931 -2.1677  0.4511  0.1334
 4614TIP3    H231030   3.421   0.913   6.799 -1.6424 -0.0292  0.3789
 4615TIP3   OH231031   4.652   5.736   2.246 -0.3463  0.3177  0.0596
 4615TIP3    H131032   4.711   5.809   2.227 -2.2859  2.2759  1.0521
 4615TIP3    H231033   4.705   5.675   2.297  0.6587  2.3786  1.6384
 4616TIP3   OH231034   6.633   3.767   0.534  0.1778 -0.1527 -0.5815
 4616TIP3    H131035   6.644   3.672   0.522  1.6937 -0.0034 -0.4645
 4616TIP3    H231036   6.713   3.805   0.500  0.1004  1.0132  0.4934
 4617TIP3   OH231037   4.664   5.232   7.211  0.1191 -0.6364  0.3267
 4617TIP3    H131038   4.738   5.177   7.235 -1.3994 -3.1771 -0.4304
 4617TIP3    H231039   4.634   5.197   7.127  0.1996  2.6259 -1.2588
 4618TIP3   OH231040   2.378   5.716   1.121 -0.1642  0.3525  0.1175
 4618TIP3    H131041   2.294   5.676   1.097 -0.8626  1.0485  1.3188
 4618TIP3    H231042   2.429   5.715   1.039 -0.5413 -1.9651 -0.1462
 4619TIP3   OH231043   1.683   0.522   1.644 -0.2577  0.1138  0.1037
 4619TIP3    H131044   1.715   0.609   1.666  1.3075 -0.7109  1.2876
 4619TIP3    H231045   1.668   0.479   1.729  1.6921 -1.6761 -0.3622
 4620TIP3   OH231046   0.463   3.776   0.452  0.4353 -0.5211  0.5492
 4620TIP3    H131047   0.463   3.747   0.361  0.5313 -0.2748  0.4691
 4620TIP3    H231048   0.390   3.729   0.493  1.7295 -2.3022  0.8973
 4621TIP3   OH231049   4.758   0.391   1.589 -0.2259 -0.1608 -0.0208
 4621TIP3    H131050   4.718   0.319   1.539  1.0560 -1.7601  1.1336
 4621TIP3    H231051   4.789   0.349   1.669  1.4326  1.4987  0.2543
 4622TIP3   OH231052   0.149   1.102   7.667  0.1556 -0.4736  0.6304
 4622TIP3    H131053   0.109   1.086   7.582  1.9016 -1.0275 -0.1415
 4622TIP3    H231054   0.194   1.020   7.689  0.9455  0.1336  1.3749
 4623TIP3   OH231055   5.383   5.936   7.358 -0.0154  0.1506  0.0451
 4623TIP3    H131056   5.336   5.853   7.364  2.7377 -1.5945 -0.7972
 4623TIP3    H231057   5.464   5.922   7.407  0.1205  2.7224  0.7174
 4624TIP3   OH231058   4.941   3.698   1.904 -0.0961  0.6523 -0.4844
 4624TIP3    H131059   4.906   3.766   1.961 -3.1913 -0.0898 -1.2858
 4624TIP3    H231060   4.906   3.719   1.818  0.9379 -0.6127 -1.2525
 4625TIP3   OH231061   1.957   3.017   5.484 -0.4421  0.6358 -0.0315
 4625TIP3    H131062   1.959   3.064   5.568  3.0327 -0.5044  0.6647
 4625TIP3    H231063   1.883   2.957   5.493 -2.1178  2.6576  0.8739
 4626TIP3   OH231064   5.498   2.408   7.631 -0.1593 -0.3512 -0.2115
 4626TIP3    H131065   5.570   2.353   7.662 -1.0898 -1.7787 -0.4806
 4626TIP3    H231066   5.497   2.482   7.691  1.3623 -0.4301 -0.0518
 4627TIP3   OH231067   6.000   0.796   6.109  0.2210  0.3027 -0.1590
 4627TIP3    H131068   5.948   0.872   6.086 -0.3314  0.4667  1.4605
 4627TIP3    H231069   5.940   0.740   6.158  1.1972 -0.1341  0.5839
 4628TIP3   OH231070   5.742   3.835   1.198 -0.1465  0.5262 -0.8402
 4628TIP3    H131071   5.661   3.786   1.208 -0.2247  0.8929  0.4952
 4628TIP3    H231072   5.715   3.927   1.196  0.1700  0.6158 -1.2436
 4629TIP3   OH231073   0.912   4.529   7.355 -0.3791  0.4602  0.1407
 4629TIP3    H131074   0.904   4.621   7.380  1.5773  0.6740  0.1504
 4629TIP3    H231075   0.883   4.480   7.432 -0.0522  1.0732  0.6573
 4630TIP3   OH231076   1.929   0.625   0.514 -0.2739 -0.8854  0.2231
 4630TIP3    H131077   1.881   0.707   0.508 -1.3101 -1.4212  0.8746
 4630TIP3    H231078   1.893   0.571   0.444 -0.0930 -1.0314  0.2422
 4631TIP3   OH231079   6.635   6.242   6.517  0.2161  0.6539 -0.7047
 4631TIP3    H131080   6.644   6.232   6.611  2.9179  1.3770 -0.7918
 4631TIP3    H231081   6.616   6.154   6.485 -3.2598  0.7841  0.6295
 4632TIP3   OH231082   4.825   2.427   0.511  0.1959 -0.2723 -0.0632
 4632TIP3    H131083   4.735   2.461   0.515 -0.1437 -1.0740 -0.5528
 4632TIP3    H231084   4.832   2.369   0.587  0.7494  0.8117  0.7305
 4633TIP3   OH231085   1.134   4.763   7.286  0.5520  0.3953 -0.3778
 4633TIP3    H131086   1.115   4.710   7.363 -0.3912  0.2496 -0.6962
 4633TIP3    H231087   1.145   4.852   7.320  2.4987 -0.0255  0.2075
 4634TIP3   OH231088   1.729   4.110   5.676  0.0447  0.2435  0.3536
 4634TIP3    H131089   1.716   4.017   5.657  0.5202  0.0065  1.1437
 4634TIP3    H231090   1.647   4.152   5.649 -0.3025 -0.4545  0.3074
 4635TIP3   OH231091   6.444   6.140   0.058 -0.5211  0.2096  0.1582
 4635TIP3    H131092   6.395   6.186  -0.011 -1.6880 -0.4715  0.5059
 4635TIP3    H231093   6.497   6.077   0.010 -1.5605 -0.4775 -0.1305
 4636TIP3   OH231094   6.246   4.156   0.948 -0.1099  0.0427  0.0362
 4636TIP3    H131095   6.328   4.205   0.951 -0.0270 -0.1231  0.6197
 4636TIP3    H231096   6.215   4.157   1.039 -1.0681  0.6398 -0.2873
 4637TIP3   OH231097   6.226   0.195   0.207 -0.3416  0.0740 -0.1843
 4637TIP3    H131098   6.308   0.242   0.223 -0.2559  0.2209 -1.0245
 4637TIP3    H231099   6.158   0.252   0.244 -0.1066  0.1592  0.1185
 4638TIP3   OH231100   1.876   0.114   6.575 -0.3529 -0.2699  0.2889
 4638TIP3    H131101   1.871   0.053   6.648 -2.3829 -1.0466 -0.4217
 4638TIP3    H231102   1.785   0.128   6.550 -0.0053  3.2639  0.5505
 4639TIP3   OH231103   3.071   0.618   0.884  0.6366  0.2514  0.2334
 4639TIP3    H131104   3.012   0.635   0.811  0.9175  1.0273  0.1820
 4639TIP3    H231105   3.056   0.526   0.906  0.6600 -0.0311 -0.8904
 4640TIP3   OH231106   3.553   3.297   1.033  0.6766  0.0094 -0.5212
 4640TIP3    H131107   3.527   3.241   0.960  0.8821 -3.0899  1.5912
 4640TIP3    H231108   3.499   3.376   1.023 -1.1404 -1.3684 -2.5769
 4641TIP3   OH231109   4.468   4.625   6.196  0.2849  0.4075 -0.0344
 4641TIP3    H131110   4.490   4.641   6.104  1.2186 -0.6838 -0.0199
 4641TIP3    H231111   4.466   4.530   6.204  1.3433  0.4633  1.3104
 4642TIP3   OH231112   2.625   4.630   6.943  0.3827  0.2786  0.2411
 4642TIP3    H131113   2.643   4.706   6.998 -1.7560  0.0198  1.4286
 4642TIP3    H231114   2.631   4.662   6.853  1.4974  1.3202  0.6640
 4643TIP3   OH231115   5.262   1.994   7.053 -0.1285 -0.3624 -0.0297
 4643TIP3    H131116   5.288   2.009   6.962 -0.1450  3.0859  0.3892
 4643TIP3    H231117   5.172   1.960   7.047 -0.8161  1.5073 -1.3381
 4644TIP3   OH231118   3.528   1.812   6.866 -0.2851 -0.0018 -0.0581
 4644TIP3    H131119   3.581   1.816   6.946 -0.7306 -2.9598  0.5120
 4644TIP3    H231120   3.548   1.726   6.828 -1.5898  0.5015 -2.0640
 4645TIP3   OH231121   4.991   2.508   7.723 -0.6392  0.1010  0.3864
 4645TIP3    H131122   5.016   2.595   7.692 -1.7437 -0.0761 -1.0964
 4645TIP3    H231123   5.074   2.462   7.735 -0.0928  0.1219 -2.5928
 4646TIP3   OH231124   1.748   1.874   1.727 -0.6122  0.1098  0.3162
 4646TIP3    H131125   1.657   1.875   1.757  0.0189  0.9430  2.3994
 4646TIP3    H231126   1.791   1.941   1.780  1.1376  0.0424 -0.9323
 4647TIP3   OH231127   2.306   4.940   1.767  0.8677  0.2046  0.0688
 4647TIP3    H131128   2.228   4.949   1.711  1.0497 -0.9980 -0.4007
 4647TIP3    H231129   2.378   4.927   1.706  1.2511  0.1036  0.5403
 4648TIP3   OH231130   1.506   3.775   0.728  0.2032  0.1312  0.2449
 4648TIP3    H131131   1.445   3.833   0.774  1.3446  1.9303 -0.4370
 4648TIP3    H231132   1.451   3.727   0.666 -0.7854  0.3123  0.9424
 4649TIP3   OH231133   5.126   1.871   6.780 -0.5981 -0.4548  0.2644
 4649TIP3    H131134   5.106   1.799   6.721 -1.0392 -0.3701  0.3059
 4649TIP3    H231135   5.216   1.895   6.760 -0.5511 -0.8200  0.0431
 4650TIP3   OH231136   6.002   0.330   0.341  0.1475  0.2354  0.1116
 4650TIP3    H131137   5.966   0.243   0.361  2.0558 -0.6605 -0.1606
 4650TIP3    H231138   5.933   0.372   0.289 -1.8914 -0.1084  2.3647
 4651TIP3   OH231139   2.202   6.633   1.206  0.2119  0.2592  0.4090
 4651TIP3    H131140   2.218   6.555   1.259 -0.4387  0.6924  1.2638
 4651TIP3    H231141   2.202   6.705   1.269  0.5393  0.9219 -0.3338
 4652TIP3   OH231142   5.927   4.263   1.145 -0.3418 -0.9748  0.2991
 4652TIP3    H131143   5.902   4.340   1.196  0.7142  0.4771 -1.2491
 4652TIP3    H231144   6.023   4.261   1.149 -0.3410 -2.0506  0.0945
 4653TIP3   OH231145   4.693   5.859   7.735  0.6040 -0.0185  0.5571
 4653TIP3    H131146   4.675   5.767   7.754  0.1612 -0.2283 -0.7475
 4653TIP3    H231147   4.779   5.858   7.693  1.1028  0.3094  1.5417
 4654TIP3   OH231148   3.302   3.831   5.784  0.0495 -0.1248  0.1792
 4654TIP3    H131149   3.245   3.893   5.738  0.4540 -0.2590 -0.5315
 4654TIP3    H231150   3.366   3.886   5.830 -0.9893  0.0455  1.4635
 4655TIP3   OH231151   5.921   1.891   1.817 -0.1653  0.7751  0.0314
 4655TIP3    H131152   5.847   1.907   1.758 -1.9173 -2.5397  1.0654
 4655TIP3    H231153   5.981   1.836   1.766  1.1374  2.5439 -0.4302
 4656TIP3   OH231154   2.494   1.383   5.153  0.3228 -1.0901 -0.4821
 4656TIP3    H131155   2.412   1.336   5.168 -1.2025  1.0225 -1.6246
 4656TIP3    H231156   2.536   1.337   5.081 -0.1700 -1.8268 -0.3060
 4657TIP3   OH231157   5.587   3.303   1.659  0.2931 -0.0310  0.0146
 4657TIP3    H131158   5.629   3.247   1.724 -0.1010 -0.3487 -0.0030
 4657TIP3    H231159   5.556   3.242   1.592 -0.8532  0.1186  0.3840
 4658TIP3   OH231160   4.054   2.138   1.526  0.6059 -0.6698 -0.3852
 4658TIP3    H131161   4.019   2.052   1.549 -0.8433  0.6210  2.7659
 4658TIP3    H231162   3.979   2.197   1.532  1.9394  1.1227 -0.6044
 4659TIP3   OH231163   5.686   3.600   0.185  0.7793 -0.3668  0.0086
 4659TIP3    H131164   5.604   3.550   0.190  1.6714 -1.8047  1.2210
 4659TIP3    H231165   5.745   3.543   0.136  1.6709 -0.3002  0.9689
 4660TIP3   OH231166   2.262   0.996   1.213 -0.5778 -0.0786  0.1752
 4660TIP3    H131167   2.248   1.062   1.145 -0.1020  0.7821  0.8923
 4660TIP3    H231168   2.337   1.029   1.263  1.1909 -2.3156 -0.8621
 4661TIP3   OH231169   1.014   4.223   6.696 -0.0440 -0.8775  0.4807
 4661TIP3    H131170   1.011   4.138   6.652  0.8585 -1.2995  1.1906
 4661TIP3    H231171   1.068   4.278   6.639 -2.9954  0.1974 -1.5090
 4662TIP3   OH231172   4.507   2.360   6.470  0.1226  0.2429 -0.4276
 4662TIP3    H131173   4.592   2.394   6.498  0.4634 -0.6867 -0.2927
 4662TIP3    H231174   4.458   2.437   6.443  1.1985  0.7530 -0.9993
 4663TIP3   OH231175   4.224   3.462   1.131  0.3392  0.5701  0.2229
 4663TIP3    H131176   4.180   3.476   1.047  0.0431 -0.8133  0.1148
 4663TIP3    H231177   4.309   3.425   1.107  0.2227  0.0982  0.5227
 4664TIP3   OH231178   3.003   1.060   0.024 -0.4493 -0.6072 -0.0927
 4664TIP3    H131179   2.908   1.067   0.034 -0.3448 -1.2469  1.8268
 4664TIP3    H231180   3.034   1.035   0.111  1.4437 -0.8361 -0.7903
 4665TIP3   OH231181   5.264   1.430   6.228  0.1689 -0.4723  0.4768
 4665TIP3    H131182   5.347   1.419   6.181 -0.1012 -1.2526  0.1702
 4665TIP3    H231183   5.229   1.342   6.237  0.6711 -0.4946  3.0242
 4666TIP3   OH231184   0.254   6.280   0.137  0.2639  0.1183 -0.1063
 4666TIP3    H131185   0.259   6.235   0.053  2.3143  1.8493 -0.9958
 4666TIP3    H231186   0.206   6.361   0.118 -1.0895 -0.3953  0.9079
 4667TIP3   OH231187   5.945   3.759   0.100  0.3614  0.1829  0.0017
 4667TIP3    H131188   5.946   3.664   0.089 -1.2839  0.0871  0.3109
 4667TIP3    H231189   5.884   3.789   0.032 -2.0566  0.5870  2.1716
 4668TIP3   OH231190   1.358   2.307   5.309  0.3359 -0.2241  0.0093
 4668TIP3    H131191   1.370   2.224   5.264  2.1133 -0.3563  0.6417
 4668TIP3    H231192   1.267   2.331   5.292 -0.3227 -2.4617  0.1275
 4669TIP3   OH231193   6.606   0.991   0.656  0.1423 -0.0046 -0.5090
 4669TIP3    H131194   6.549   1.051   0.608  0.2865  1.0307  0.5541
 4669TIP3    H231195   6.561   0.979   0.741  1.1988  0.3403  0.1135
 4670TIP3   OH231196   6.235   3.706   0.028  0.7586 -0.3311  0.0714
 4670TIP3    H131197   6.205   3.721  -0.062  1.7354 -0.6150 -0.3134
 4670TIP3    H231198   6.194   3.623   0.054  0.2199 -0.0860  0.0079
 4671TIP3   OH231199   3.888   1.135   7.712  0.2653 -0.1498 -0.3672
 4671TIP3    H131200   3.982   1.135   7.729  0.2580 -0.4723 -0.3213
 4671TIP3    H231201   3.876   1.069   7.643 -0.0298 -0.6997  0.2010
 4672TIP3   OH231202   0.183   4.617   6.189 -0.2447  0.1884 -1.1157
 4672TIP3    H131203   0.256   4.585   6.242 -2.6660 -0.1952  2.3504
 4672TIP3    H231204   0.135   4.538   6.164 -1.2845  0.5778 -0.4103
 4673TIP3   OH231205   5.916   4.970   0.244  0.1487 -0.4763 -0.4980
 4673TIP3    H131206   5.832   5.011   0.224  0.2625 -1.1722 -2.6957
 4673TIP3    H231207   5.978   5.015   0.187  1.2424 -0.2316  0.8209
 4674TIP3   OH231208   5.202   0.959   0.208 -0.0984 -0.6551  0.3207
 4674TIP3    H131209   5.108   0.968   0.226 -0.0902 -0.8981  0.4881
 4674TIP3    H231210   5.219   0.865   0.216  0.6751 -0.3709  2.9239
 4675TIP3   OH231211   1.102   6.548   1.218  0.1275  0.8476  0.1296
 4675TIP3    H131212   1.025   6.584   1.173  0.9717  1.1486 -1.1351
 4675TIP3    H231213   1.175   6.571   1.161  1.0241 -0.4444  0.7313
 4676TIP3   OH231214   2.963   3.954   1.898 -0.4789 -0.2204 -0.2790
 4676TIP3    H131215   2.922   4.036   1.925  0.2277  0.1493 -0.3104
 4676TIP3    H231216   3.006   3.921   1.977 -1.1978 -0.8290 -0.1352
 4677TIP3   OH231217   5.501   4.330   0.348 -0.0559  0.3175  0.3145
 4677TIP3    H131218   5.569   4.274   0.309 -1.4577 -0.1793 -1.5820
 4677TIP3    H231219   5.549   4.393   0.401  1.9825  0.4401 -1.5135
 4678TIP3   OH231220   5.148   5.493   0.476  0.2228 -0.2537  0.3443
 4678TIP3    H131221   5.088   5.474   0.548 -0.1505 -2.7160 -0.5094
 4678TIP3    H231222   5.111   5.569   0.432 -1.2181 -0.5460  0.9970
 4679TIP3   OH231223   1.018   5.347   7.021  0.8489 -0.0827  0.2283
 4679TIP3    H131224   1.043   5.438   7.039 -1.7568  0.4787  1.5809
 4679TIP3    H231225   1.022   5.340   6.925  1.8549  1.1998  0.1450
 4680TIP3   OH231226   3.143   5.273   7.450  0.0927 -0.4045 -0.5960
 4680TIP3    H131227   3.068   5.333   7.450  0.0511 -0.4563 -0.6423
 4680TIP3    H231228   3.174   5.273   7.360  0.1835 -0.3404 -0.5646
 4681TIP3   OH231229   3.249   4.268   0.402  0.2659  0.0366  0.3778
 4681TIP3    H131230   3.186   4.228   0.462  0.6253 -0.6852  0.2870
 4681TIP3    H231231   3.300   4.327   0.458 -1.6967  2.1402  0.1175
 4682TIP3   OH231232   2.109   0.302   0.972 -0.8272 -0.0632 -0.1572
 4682TIP3    H131233   2.126   0.395   0.992  0.0552 -0.1635 -0.3886
 4682TIP3    H231234   2.046   0.275   1.039 -0.6571  0.5533  0.2721
 4683TIP3   OH231235   6.597   2.964   7.590  0.2589  0.4267  0.0502
 4683TIP3    H131236   6.659   2.910   7.638 -0.5918 -1.2435 -0.6753
 4683TIP3    H231237   6.511   2.931   7.616 -0.2606  0.8900 -1.0130
 4684TIP3   OH231238   3.656   6.478   7.615  0.2419  0.6340 -0.6025
 4684TIP3    H131239   3.567   6.498   7.644 -0.1493  1.6175 -2.3226
 4684TIP3    H231240   3.652   6.486   7.520  2.0731  0.2026 -0.7480
 4685TIP3   OH231241   5.391   2.538   0.122 -0.3956  0.1648  0.0140
 4685TIP3    H131242   5.409   2.465   0.180 -1.9593  0.4560  0.9329
 4685TIP3    H231243   5.314   2.581   0.160  0.2449  2.0728 -0.6985
 4686TIP3   OH231244   0.067   1.466   1.415 -0.0840 -0.0664 -0.0906
 4686TIP3    H131245   0.161   1.470   1.395 -0.0633  0.3444  0.0829
 4686TIP3    H231246   0.024   1.482   1.331  0.0030  0.0182 -0.1191
 4687TIP3   OH231247   1.053   2.058   2.838 -0.7994 -0.1881  0.2302
 4687TIP3    H131248   1.101   2.061   2.921 -0.6701 -0.0469  0.1491
 4687TIP3    H231249   1.120   2.061   2.771 -0.8712 -0.8376  0.1198
 4688TIP3   OH231250   3.446   3.567   1.061  0.2515 -0.2744 -0.8046
 4688TIP3    H131251   3.472   3.645   1.110  2.8755 -1.5699  0.0800
 4688TIP3    H231252   3.440   3.596   0.970  1.0077  1.0132 -0.4613
 4689TIP3   OH231253   1.639   2.474   6.627  0.4540 -0.2564  0.3677
 4689TIP3    H131254   1.656   2.404   6.689  2.2554 -1.9766 -1.8966
 4689TIP3    H231255   1.683   2.551   6.664 -0.2886 -0.6347  2.1550
 4690TIP3   OH231256   5.918   6.075   1.625 -0.1594 -0.1452  0.7580
 4690TIP3    H131257   5.862   6.000   1.641 -1.7933  1.2124  1.6952
 4690TIP3    H231258   5.935   6.111   1.712  2.2002 -0.4686  0.5183
 4691TIP3   OH231259   6.574   3.842   5.975  0.5890  0.2830 -0.7391
 4691TIP3    H131260   6.552   3.878   6.061 -0.2134  0.0620 -0.8475
 4691TIP3    H231261   6.552   3.912   5.913  1.1311  0.4283 -0.7729
 4692TIP3   OH231262   6.424   4.963   1.323  0.6958 -0.4195 -0.4713
 4692TIP3    H131263   6.490   4.987   1.259  0.8566  1.7133  0.3992
 4692TIP3    H231264   6.346   5.013   1.298  0.2814 -0.7733  0.0815
 4693TIP3   OH231265   6.176   3.482   1.291 -0.1459  0.2836  0.3597
 4693TIP3    H131266   6.167   3.563   1.340 -0.0721  0.2987  0.3490
 4693TIP3    H231267   6.270   3.473   1.278 -0.2841  1.6476 -2.0786
 4694TIP3   OH231268   4.898   2.604   1.961  0.2531  0.4243  0.3990
 4694TIP3    H131269   4.929   2.529   2.013  1.2245  0.0628 -0.6484
 4694TIP3    H231270   4.913   2.680   2.017 -2.3706 -0.2487  2.1982
 4695TIP3   OH231271   1.734   3.455   1.568  0.1769 -0.1945 -0.1765
 4695TIP3    H131272   1.641   3.475   1.571  0.3673  0.6113  0.8097
 4695TIP3    H231273   1.740   3.366   1.603  0.0144  0.7330  2.3807
 4696TIP3   OH231274   1.926   5.040   5.142  0.1188 -0.0848  0.1172
 4696TIP3    H131275   1.834   5.066   5.151  0.2817  0.5273  0.0651
 4696TIP3    H231276   1.972   5.092   5.208  0.3172 -1.0191  0.7297
 4697TIP3   OH231277   0.016   6.426   1.601 -0.1673  0.5103  0.1120
 4697TIP3    H131278   0.080   6.355   1.609  0.2409  1.0576  2.2297
 4697TIP3    H231279  -0.052   6.405   1.665  0.0333  2.0757  0.8814
 4698TIP3   OH231280   4.754   5.727   6.127 -0.9539 -0.3323 -0.1750
 4698TIP3    H131281   4.691   5.706   6.059 -2.0886 -2.8286  1.4751
 4698TIP3    H231282   4.801   5.644   6.142  1.9042  1.1196 -0.4854
 4699TIP3   OH231283   5.871   3.754   1.538  0.0102 -0.3314  0.1047
 4699TIP3    H131284   5.783   3.752   1.576 -0.7336 -0.7776 -1.5442
 4699TIP3    H231285   5.870   3.831   1.481 -0.1908 -1.6810 -1.8120
 4700TIP3   OH231286   1.464   3.073   6.807  0.5243 -0.2011  0.5459
 4700TIP3    H131287   1.547   3.111   6.779 -0.1723 -0.0967 -1.5390
 4700TIP3    H231288   1.455   2.994   6.753 -0.3895 -0.6019  1.2699
 4701TIP3   OH231289   2.290   2.237   5.821  0.4862 -0.1170 -0.0053
 4701TIP3    H131290   2.313   2.262   5.732  0.5559  0.0866  0.0689
 4701TIP3    H231291   2.358   2.176   5.848  0.3226 -0.3802 -0.1840
 4702TIP3   OH231292   6.014   3.404   6.480 -0.3050  0.0468  0.4116
 4702TIP3    H131293   5.999   3.420   6.387 -0.4554 -0.6082  0.3135
 4702TIP3    H231294   6.020   3.308   6.486  1.8768  0.1551  0.7433
 4703TIP3   OH231295   6.489   0.521   6.208 -0.1117 -0.7889  0.8390
 4703TIP3    H131296   6.537   0.443   6.178 -0.4163 -0.5600 -0.2907
 4703TIP3    H231297   6.404   0.514   6.164 -0.3371 -0.1042  1.1669
 4704TIP3   OH231298   6.103   3.431   6.817 -0.0061  0.2067 -0.4200
 4704TIP3    H131299   6.062   3.488   6.882  0.9287 -0.1332  0.4985
 4704TIP3    H231300   6.046   3.355   6.812 -0.0028  0.1706  0.1171
 4705TIP3   OH231301   5.915   0.293   6.570  0.2882  0.4460  0.1532
 4705TIP3    H131302   5.975   0.235   6.616 -0.7050 -0.2912  0.5626
 4705TIP3    H231303   5.970   0.362   6.534  1.1786  0.7018  1.9103
 4706TIP3   OH231304   1.891   5.685   6.994  0.2338  0.0046  0.8199
 4706TIP3    H131305   1.962   5.636   7.036  0.6814  0.3081  0.4123
 4706TIP3    H231306   1.916   5.777   7.004  0.2611  0.0861  0.0359
 4707TIP3   OH231307   2.143   5.003   6.854  0.3423  0.1031 -0.0835
 4707TIP3    H131308   2.093   4.965   6.781 -0.9707  1.1041  0.2486
 4707TIP3    H231309   2.172   5.088   6.821 -0.4042  0.6348  0.5852
 4708TIP3   OH231310   1.241   2.083   2.662  0.1510 -0.9832 -0.1415
 4708TIP3    H131311   1.331   2.069   2.690  0.4014  2.0713  0.8987
 4708TIP3    H231312   1.248   2.139   2.585 -0.8522 -0.8096 -0.1209
 4709TIP3   OH231313   0.563   5.959   5.959  0.1717  0.3861 -0.1245
 4709TIP3    H131314   0.492   6.020   5.938 -0.6688 -0.4124  0.3495
 4709TIP3    H231315   0.526   5.872   5.947  0.9178 -0.0550  0.5824
 4710TIP3   OH231316   1.625   1.547   6.093 -0.2562  0.2460  0.4394
 4710TIP3    H131317   1.711   1.580   6.066  0.0069 -0.1728  0.7439
 4710TIP3    H231318   1.643   1.459   6.126 -0.6531  0.5320  1.4574
 4711TIP3   OH231319   5.158   5.262   6.712 -0.0561  0.1708  0.0612
 4711TIP3    H131320   5.066   5.246   6.734  0.4033 -1.8336  0.7699
 4711TIP3    H231321   5.163   5.357   6.700 -1.7405  0.6474  2.2859
 4712TIP3   OH231322   3.460   5.269   7.600  0.5162 -0.1218  0.0047
 4712TIP3    H131323   3.474   5.235   7.688  0.2755  2.0830  0.9654
 4712TIP3    H231324   3.403   5.203   7.558 -1.6618  0.0307  2.4375
 4713TIP3   OH231325   1.489   0.481   6.893 -0.5395  0.5362 -0.1486
 4713TIP3    H131326   1.421   0.487   6.961  0.3070  0.0564  0.7589
 4713TIP3    H231327   1.453   0.531   6.819 -1.9762  0.1014  0.2299
 4714TIP3   OH231328   3.608   2.026   0.251  0.1876 -0.8931  0.6672
 4714TIP3    H131329   3.648   2.049   0.335 -0.9565 -0.9480  1.2596
 4714TIP3    H231330   3.679   2.032   0.187  1.0501 -0.7213  1.6203
 4715TIP3   OH231331   0.111   4.756   2.218  0.4422  0.1206  0.2584
 4715TIP3    H131332   0.033   4.714   2.253 -0.0323  0.6767 -0.1269
 4715TIP3    H231333   0.175   4.685   2.211 -0.4335 -0.6010 -0.6594
 4716TIP3   OH231334   4.529   0.996   5.619  0.3626 -0.0425  0.2753
 4716TIP3    H131335   4.470   1.069   5.602 -0.6595 -0.8592  0.1930
 4716TIP3    H231336   4.501   0.928   5.558  0.4870 -0.9374  1.1896
 4717TIP3   OH231337   2.075   5.395   1.092  0.0946  0.0911  0.0155
 4717TIP3    H131338   2.027   5.361   1.168 -0.6439  1.7183  0.3197
 4717TIP3    H231339   2.136   5.325   1.069 -1.8891 -1.7476  0.0855
 4718TIP3   OH231340   5.254   3.127   0.280 -0.7393  0.0001  0.0744
 4718TIP3    H131341   5.278   3.034   0.276 -0.8943  0.0020 -1.6716
 4718TIP3    H231342   5.330   3.170   0.318 -0.3838 -0.7588  0.2356
 4719TIP3   OH231343   1.315   3.885   6.230  0.3618 -0.2492 -0.4532
 4719TIP3    H131344   1.388   3.945   6.247  0.1753 -0.1178 -0.0906
 4719TIP3    H231345   1.356   3.807   6.194  0.4964  0.5448 -2.0991
 4720TIP3   OH231346   0.539   0.672   6.305  0.3448 -0.8961 -0.0899
 4720TIP3    H131347   0.475   0.601   6.301 -1.2936  0.5343 -0.4123
 4720TIP3    H231348   0.533   0.714   6.220 -0.8959  1.4062  1.0482
 4721TIP3   OH231349   2.560   5.176   7.124  0.0127  0.4124 -0.3585
 4721TIP3    H131350   2.492   5.128   7.078  0.9364 -0.5556 -0.7534
 4721TIP3    H231351   2.622   5.202   7.055  0.7628  0.0496  0.1581
 4722TIP3   OH231352   2.885   4.522   1.154 -0.0149  0.2717  0.0979
 4722TIP3    H131353   2.846   4.584   1.215 -0.9987  0.8991 -1.1244
 4722TIP3    H231354   2.908   4.574   1.077  1.5753 -0.4307  0.0550
 4723TIP3   OH231355   2.855   0.567   0.667  0.0077 -0.3372 -0.9275
 4723TIP3    H131356   2.814   0.482   0.653  0.1323 -0.2467 -1.8996
 4723TIP3    H231357   2.876   0.599   0.579  0.9207  0.2235 -0.5269
 4724TIP3   OH231358   3.163   0.809   6.604  0.1571  0.1981  0.0584
 4724TIP3    H131359   3.137   0.761   6.683  1.5624  0.0870  0.4680
 4724TIP3    H231360   3.098   0.782   6.539  0.8537 -2.2638  0.2795
 4725TIP3   OH231361   6.410   4.233   6.951  0.5729 -0.4029  0.1506
 4725TIP3    H131362   6.394   4.288   7.028  0.5165 -0.1490 -0.0423
 4725TIP3    H231363   6.483   4.176   6.977  0.0294 -0.8675  0.6694
 4726TIP3   OH231364   0.059   0.270   0.084  0.3894  0.7344 -0.4329
 4726TIP3    H131365   0.145   0.298   0.052  1.2025 -0.7373  0.3638
 4726TIP3    H231366   0.063   0.175   0.084 -1.7227  0.5778 -1.5649
 4727TIP3   OH231367   4.653   2.749   6.290 -0.0221 -0.5878  0.2752
 4727TIP3    H131368   4.583   2.731   6.227 -0.3197 -1.3522  0.8115
 4727TIP3    H231369   4.610   2.800   6.359  0.0410 -0.7219  0.4139
 4728TIP3   OH231370   1.173   0.607   1.060 -0.1564 -0.4175 -0.2996
 4728TIP3    H131371   1.184   0.700   1.084  0.3715 -0.4109 -0.5612
 4728TIP3    H231372   1.171   0.561   1.144 -0.4883 -0.1643 -0.1656
 4729TIP3   OH231373   4.986   3.210   0.744  0.6367 -0.2888 -0.7540
 4729TIP3    H131374   4.988   3.207   0.840  0.3574  0.0389 -0.7390
 4729TIP3    H231375   5.068   3.254   0.720  0.5050  0.0204 -0.6463
 4730TIP3   OH231376   0.976   2.670   1.208  0.0120 -0.0850 -0.1986
 4730TIP3    H131377   1.047   2.631   1.156  1.1502  0.7568  0.6517
 4730TIP3    H231378   0.957   2.753   1.165  0.0969  0.0484  0.0170
 4731TIP3   OH231379   2.623   6.611   7.189 -0.4802  0.0827  1.0285
 4731TIP3    H131380   2.680   6.551   7.142  1.2602 -0.6294  3.7912
 4731TIP3    H231381   2.559   6.639   7.124 -1.3223 -4.5588 -0.4982
 4732TIP3   OH231382   3.829   0.021   1.718  0.4643 -0.3520 -0.1622
 4732TIP3    H131383   3.921   0.021   1.741  0.6319 -0.1916 -0.8074
 4732TIP3    H231384   3.786   0.067   1.790  0.7093 -1.5448  0.7670
 4733TIP3   OH231385   6.438   4.352   2.232 -0.4075  1.1668 -0.4161
 4733TIP3    H131386   6.343   4.350   2.249 -0.3167  1.9454  0.2848
 4733TIP3    H231387   6.471   4.272   2.273 -0.8448  0.5419 -1.2626
 4734TIP3   OH231388   0.401   3.452   7.468  0.2382 -1.1745  0.2839
 4734TIP3    H131389   0.445   3.389   7.525 -0.6640 -3.1041 -1.0458
 4734TIP3    H231390   0.308   3.442   7.488 -0.0324 -1.3561 -1.0022
 4735TIP3   OH231391   5.521   4.685   6.741  0.1125  0.4971  0.1184
 4735TIP3    H131392   5.596   4.651   6.791 -0.2770  0.2054  0.5205
 4735TIP3    H231393   5.557   4.757   6.689  0.7213  0.2077  0.1237
 4736TIP3   OH231394   5.647   5.137   1.126  0.2074  0.0300  0.5890
 4736TIP3    H131395   5.571   5.181   1.165  0.6399  1.7964 -0.4632
 4736TIP3    H231396   5.614   5.052   1.097 -1.2641  0.5918  0.5560
 4737TIP3   OH231397   1.111   3.113   1.368 -0.4752 -0.2164  0.0800
 4737TIP3    H131398   1.167   3.159   1.304 -2.0941  0.0152 -1.2339
 4737TIP3    H231399   1.172   3.082   1.435  1.2837 -0.3090 -1.4837
 4738TIP3   OH231400   4.919   6.383   7.149  0.0889 -0.1447 -0.0154
 4738TIP3    H131401   5.014   6.397   7.143 -0.1596  1.9485 -0.0670
 4738TIP3    H231402   4.892   6.438   7.222 -1.0207 -1.2130  0.3963
 4739TIP3   OH231403   3.303   5.664   0.090 -0.2926 -0.0729  0.6195
 4739TIP3    H131404   3.334   5.578   0.060  1.5353  0.4933  0.7168
 4739TIP3    H231405   3.380   5.720   0.083 -1.1470  1.2921  1.6414
 4740TIP3   OH231406   5.691   5.409   1.337  0.1375 -0.2687  0.1309
 4740TIP3    H131407   5.642   5.460   1.273  1.6995  1.8624  0.5054
 4740TIP3    H231408   5.766   5.375   1.289 -0.6094 -1.8453  0.0157
 4741TIP3   OH231409   2.439   1.535   7.730 -0.2893  0.3957 -0.1665
 4741TIP3    H131410   2.501   1.608   7.734  1.6813 -1.0423 -2.4254
 4741TIP3    H231411   2.469   1.474   7.798 -0.6826  0.7255  0.3135
 4742TIP3   OH231412   5.006   4.132   1.113 -0.0122 -0.4103  0.4177
 4742TIP3    H131413   5.101   4.135   1.104 -0.0895  1.8671 -0.1683
 4742TIP3    H231414   4.987   4.199   1.180 -1.0669 -2.4919  2.3405
 4743TIP3   OH231415   5.082   2.247   6.971 -0.1063  0.5697  0.1298
 4743TIP3    H131416   5.029   2.240   6.891 -1.0259  0.2430  0.7467
 4743TIP3    H231417   5.114   2.158   6.986 -1.4722  0.2202  1.1270
 4744TIP3   OH231418   5.091   6.622   0.954 -0.7076  0.4403 -0.3947
 4744TIP3    H131419   5.107   6.707   0.914  0.1172  1.2726  1.5485
 4744TIP3    H231420   5.160   6.614   1.021 -2.8646 -0.1209  1.9171
 4745TIP3   OH231421   5.274   3.647   6.632 -0.2063 -0.3318 -0.1819
 4745TIP3    H131422   5.182   3.622   6.625  0.1605 -1.7704 -0.1221
 4745TIP3    H231423   5.292   3.696   6.552 -0.7181 -1.0845 -0.7730
 4746TIP3   OH231424   0.048   6.483   1.305  0.4280  0.4954 -0.4476
 4746TIP3    H131425   0.023   6.513   1.218  2.9051  0.2045 -1.3364
 4746TIP3    H231426   0.085   6.396   1.291  0.8371  0.4251  0.9122
 4747TIP3   OH231427   6.066   1.567   1.276  0.0233 -0.2079 -0.4837
 4747TIP3    H131428   6.147   1.599   1.316 -1.6175  1.7701  1.5031
 4747TIP3    H231429   6.090   1.549   1.185  2.5150  1.0078 -0.1609
 4748TIP3   OH231430   5.356   2.117   1.344  0.3539  0.3320 -0.1436
 4748TIP3    H131431   5.352   2.201   1.389  3.8778  0.7388 -0.3297
 4748TIP3    H231432   5.329   2.135   1.254  0.2769  1.0778  0.0296
 4749TIP3   OH231433   2.288   4.009   6.465 -0.4010  0.3400  0.0342
 4749TIP3    H131434   2.212   4.039   6.415 -0.4004  1.7659  0.8550
 4749TIP3    H231435   2.333   4.089   6.492  0.6676 -0.4484  0.6946
 4750TIP3   OH231436   5.874   2.349   7.151  0.1845 -0.6147 -0.0079
 4750TIP3    H131437   5.795   2.336   7.204 -0.2494  0.2802 -0.4135
 4750TIP3    H231438   5.938   2.387   7.212  0.4397 -1.7041  0.4156
 4751TIP3   OH231439   0.978   3.643   1.077 -0.2211  0.1400 -0.2324
 4751TIP3    H131440   0.933   3.600   1.005 -0.8024 -1.0283  0.8043
 4751TIP3    H231441   1.031   3.575   1.117 -0.6667  0.5246  1.0506
 4752TIP3   OH231442   0.303   2.101   0.210  0.3787 -0.1488 -0.8922
 4752TIP3    H131443   0.240   2.043   0.169 -0.2150 -0.1405 -0.0265
 4752TIP3    H231444   0.383   2.049   0.217 -0.5361 -1.4016  1.1509
 4753TIP3   OH231445   3.755   1.933   6.345  0.1941 -0.0825  0.4266
 4753TIP3    H131446   3.716   1.994   6.408  0.5102 -0.6986  1.2298
 4753TIP3    H231447   3.733   1.970   6.259 -3.8954 -1.3877  0.7009
 4754TIP3   OH231448   0.117   1.361   7.077 -0.1264 -0.2374 -0.5667
 4754TIP3    H131449   0.125   1.359   7.172 -0.5105 -3.3954 -0.5233
 4754TIP3    H231450   0.207   1.376   7.046  0.0108  0.7608  0.2563
 4755TIP3   OH231451   0.023   6.228   1.914 -0.2593 -0.2617 -0.0719
 4755TIP3    H131452   0.078   6.150   1.902 -0.5738 -0.3406 -1.0741
 4755TIP3    H231453   0.072   6.282   1.976  0.5741 -0.6952 -0.3324
 4756TIP3   OH231454   5.498   4.921   7.081  0.1837 -0.0045 -0.1506
 4756TIP3    H131455   5.432   4.874   7.132 -0.0401 -1.4968 -1.7342
 4756TIP3    H231456   5.449   4.990   7.036 -0.5508 -1.7208 -2.1002
 4757TIP3   OH231457   2.226   1.845   0.897  0.2934  0.2335  0.1324
 4757TIP3    H131458   2.186   1.778   0.842  0.5031 -1.1620  1.5661
 4757TIP3    H231459   2.152   1.893   0.934  0.1284  0.6579 -0.7349
 4758TIP3   OH231460   0.200   0.341   7.184 -0.2321 -0.0489  0.1419
 4758TIP3    H131461   0.176   0.360   7.275 -0.3643  0.2358  0.0490
 4758TIP3    H231462   0.213   0.427   7.144 -1.1563 -0.1281 -0.3655
 4759TIP3   OH231463   2.928   3.534   1.592 -0.2108 -0.4851 -0.4087
 4759TIP3    H131464   2.839   3.516   1.622  0.1548 -1.7099  0.0026
 4759TIP3    H231465   2.949   3.621   1.627 -1.1269 -0.3167 -0.2687
 4760TIP3   OH231466   2.551   1.657   1.939  0.9146 -0.2803  0.1925
 4760TIP3    H131467   2.474   1.600   1.943 -0.0386  0.9177 -0.6142
 4760TIP3    H231468   2.573   1.673   2.031  0.1369 -0.5394  0.4332
 4761TIP3   OH231469   5.561   4.277   1.958  0.1836  0.1832 -0.0981
 4761TIP3    H131470   5.628   4.340   1.930  1.6412 -1.7855 -1.3627
 4761TIP3    H231471   5.508   4.263   1.879 -0.2786  0.0047  0.2423
 4762TIP3   OH231472   1.543   1.219   1.411 -0.4770 -0.0271  0.1090
 4762TIP3    H131473   1.556   1.279   1.484 -1.8836  0.7404 -0.2391
 4762TIP3    H231474   1.458   1.178   1.429 -0.2541 -0.7662 -0.4665
 4763TIP3   OH231475   3.619   2.571   6.453 -0.3637 -0.4854 -0.3103
 4763TIP3    H131476   3.569   2.649   6.480  0.3194 -0.4390  0.8595
 4763TIP3    H231477   3.704   2.606   6.426  0.9829 -0.9723  2.8265
 4764TIP3   OH231478   3.402   5.029   5.775  0.5099 -0.3916  0.8500
 4764TIP3    H131479   3.365   5.113   5.750 -1.1143 -0.4277  2.8496
 4764TIP3    H231480   3.450   4.999   5.698 -0.6286  1.3806 -0.6149
 4765TIP3   OH231481   0.863   2.562   1.427 -0.1594  0.3064  0.0975
 4765TIP3    H131482   0.905   2.612   1.357 -2.3435  1.6249 -0.3730
 4765TIP3    H231483   0.866   2.621   1.503  1.1268 -0.6353  0.7987
 4766TIP3   OH231484   3.347   1.007   1.718  0.7071 -0.3447 -0.2645
 4766TIP3    H131485   3.262   1.048   1.701  1.8628  2.0786 -0.5463
 4766TIP3    H231486   3.399   1.075   1.761  2.3303 -1.9633  0.4792
 4767TIP3   OH231487   0.141   4.546   6.631 -0.5765 -0.0022  0.1068
 4767TIP3    H131488   0.220   4.533   6.683 -1.5874  1.1141  2.0723
 4767TIP3    H231489   0.158   4.624   6.579 -1.1722  1.7807  2.3951
 4768TIP3   OH231490   6.056   1.262   1.502  0.2092 -0.0745 -0.2467
 4768TIP3    H131491   6.017   1.267   1.589  2.3908 -2.1798  0.9805
 4768TIP3    H231492   6.148   1.281   1.515  0.4950  0.1106 -2.2046
 4769TIP3   OH231493   1.753   0.629   7.290  0.2647  0.5926  0.8493
 4769TIP3    H131494   1.795   0.653   7.207 -0.6147 -1.3922 -0.2434
 4769TIP3    H231495   1.750   0.534   7.288 -1.6364  0.5776  2.2378
 4770TIP3   OH231496   4.409   0.470   1.084 -0.5117 -0.2725  0.2371
 4770TIP3    H131497   4.446   0.396   1.036 -0.0160  0.1532 -0.0462
 4770TIP3    H231498   4.317   0.445   1.099 -0.6358 -0.4897 -0.7823
 4771TIP3   OH231499   5.150   4.676   0.343  0.2053  0.1407  0.4791
 4771TIP3    H131500   5.120   4.623   0.417  1.2481 -1.7966 -0.4190
 4771TIP3    H231501   5.069   4.709   0.303 -0.5091 -0.9990  0.9290
 4772TIP3   OH231502   2.270   1.056   7.611 -0.2878 -0.0162 -0.4345
 4772TIP3    H131503   2.287   0.966   7.582 -1.8714 -0.3598 -0.3812
 4772TIP3    H231504   2.180   1.073   7.583 -0.2690  1.2805  0.2603
 4773TIP3   OH231505   3.813   0.943   1.379 -0.2135  0.6777 -0.2431
 4773TIP3    H131506   3.736   0.966   1.431  0.0917  0.4917  0.3106
 4773TIP3    H231507   3.864   1.024   1.373  0.7025  0.2827  1.4293
 4774TIP3   OH231508   5.186   5.577   7.724  0.3050 -0.0293  0.1636
 4774TIP3    H131509   5.176   5.524   7.644  0.0525 -0.4880  0.4926
 4774TIP3    H231510   5.275   5.612   7.719 -0.3879  1.6610 -1.3381
 4775TIP3   OH231511   0.889   5.735   1.407 -0.0388  0.2884 -0.7914
 4775TIP3    H131512   0.954   5.682   1.453  0.6962 -0.7522 -2.9297
 4775TIP3    H231513   0.870   5.807   1.468  1.4310 -0.5948  0.7964
 4776TIP3   OH231514   3.590   4.028   1.796  0.0652  0.0192 -0.4134
 4776TIP3    H131515   3.573   3.991   1.882 -0.5718  0.9177 -0.1348
 4776TIP3    H231516   3.638   3.960   1.749  2.3245  0.2765  1.3542
 4777TIP3   OH231517   2.196   2.158   7.600 -0.5153 -0.0131  0.5911
 4777TIP3    H131518   2.181   2.094   7.531 -0.0432  2.0724 -1.5838
 4777TIP3    H231519   2.290   2.156   7.615 -0.5073  0.1168  0.5635
 4778TIP3   OH231520   0.493   5.679   1.382  0.2028  0.4216 -0.0912
 4778TIP3    H131521   0.551   5.676   1.306 -0.5371  0.6393 -0.6786
 4778TIP3    H231522   0.505   5.766   1.419  0.7626  0.2228  0.2117
 4779TIP3   OH231523   1.126   4.569   7.553 -0.3063  0.7672  0.5789
 4779TIP3    H131524   1.055   4.534   7.606 -0.6504  0.6425  0.0436
 4779TIP3    H231525   1.130   4.510   7.477 -0.5989  1.6350 -0.1175
 4780TIP3   OH231526   2.964   4.692   5.708  0.2150 -0.3061  0.0042
 4780TIP3    H131527   2.966   4.768   5.650  1.3068  0.5037  1.0668
 4780TIP3    H231528   3.017   4.626   5.664 -1.3804 -0.7843 -1.3037
 4781TIP3   OH231529   4.135   3.112   5.478  0.4623 -0.1474  0.5974
 4781TIP3    H131530   4.103   3.198   5.452  2.1194  1.0043  2.1558
 4781TIP3    H231531   4.062   3.053   5.459 -0.9298  1.6584  0.0109
 4782TIP3   OH231532   2.963   4.719   7.000  0.5916 -0.3386 -0.0847
 4782TIP3    H131533   2.994   4.731   7.089  0.7135 -0.2070 -0.1444
 4782TIP3    H231534   2.883   4.772   6.996  0.0938 -1.0542  0.2073
 4783TIP3   OH231535   3.905   6.515   0.322 -0.0765  0.1866 -0.0380
 4783TIP3    H131536   3.853   6.460   0.262 -1.5321  1.0860  0.3348
 4783TIP3    H231537   3.906   6.466   0.404  1.7619 -0.9600 -0.6869
 4784TIP3   OH231538   4.583   5.589   7.668 -0.0740 -0.1166  0.2655
 4784TIP3    H131539   4.518   5.519   7.659 -0.1587  0.0684 -0.6030
 4784TIP3    H231540   4.659   5.546   7.707 -1.6562  0.2314  4.2036
 4785TIP3   OH231541   1.774   2.182   1.554 -0.0963  0.6161 -0.1743
 4785TIP3    H131542   1.792   2.192   1.461 -0.3998  1.2256 -0.1763
 4785TIP3    H231543   1.855   2.148   1.591  0.3970  1.3971 -0.4937
 4786TIP3   OH231544   0.147   1.171   6.304 -0.2720  0.0502 -0.0712
 4786TIP3    H131545   0.140   1.220   6.222 -1.1664 -1.6400 -1.0646
 4786TIP3    H231546   0.231   1.126   6.298 -0.4937 -0.3472 -0.2334
 4787TIP3   OH231547   2.745   4.774   0.605 -0.1695  0.6530 -0.1453
 4787TIP3    H131548   2.691   4.778   0.527  0.1423 -0.5485 -0.4436
 4787TIP3    H231549   2.707   4.704   0.658  0.0577  0.9620  0.4438
 4788TIP3   OH231550   2.135   1.365   5.738 -0.1290 -0.5840  0.1875
 4788TIP3    H131551   2.120   1.384   5.831  1.1635  1.9429 -0.0444
 4788TIP3    H231552   2.088   1.434   5.691  0.7114 -0.7772 -0.9700
 4789TIP3   OH231553   1.392   5.853   0.211 -0.0552  0.2235  0.4554
 4789TIP3    H131554   1.436   5.910   0.147 -0.9680  0.2618 -0.1662
 4789TIP3    H231555   1.370   5.911   0.283  0.1859  0.3760  0.4094
 4790TIP3   OH231556   1.909   2.852   1.709 -0.0654  0.1261 -0.8478
 4790TIP3    H131557   1.990   2.853   1.760  0.5358 -0.2439 -1.7645
 4790TIP3    H231558   1.927   2.910   1.635 -0.1086 -1.1049 -1.8416
 4791TIP3   OH231559   4.036   2.524   2.721  0.1483 -0.0692  0.8639
 4791TIP3    H131560   4.079   2.565   2.646 -0.8428 -0.7350 -0.0826
 4791TIP3    H231561   4.097   2.456   2.750 -0.1092 -0.8051 -0.2832
 4792TIP3   OH231562   1.032   1.141   2.557  0.2260 -0.6051 -0.0027
 4792TIP3    H131563   1.015   1.230   2.526  0.0550 -0.5893  0.1309
 4792TIP3    H231564   0.949   1.095   2.543  0.5888 -0.9913 -0.9153
 4793TIP3   OH231565   1.868   3.978   7.552 -0.5235  0.1088  0.5931
 4793TIP3    H131566   1.844   3.901   7.604 -1.6811  0.2044  0.2288
 4793TIP3    H231567   1.859   3.949   7.461  1.9890 -0.2228  0.3613
 4794TIP3   OH231568   4.813   1.726   6.411 -0.0121  0.2898 -0.1321
 4794TIP3    H131569   4.744   1.725   6.344 -0.5007  0.4442  0.3632
 4794TIP3    H231570   4.766   1.737   6.493  0.6978  1.5695  0.1135
 4795TIP3   OH231571   3.698   2.002   7.757  0.7115  0.3069 -0.3091
 4795TIP3    H131572   3.725   1.911   7.766 -0.4604  0.0414  0.6698
 4795TIP3    H231573   3.658   2.006   7.670 -0.2389 -0.3806  0.0891
 4796TIP3   OH231574   2.976   3.593   0.823  0.3480 -0.1772  0.7565
 4796TIP3    H131575   2.881   3.591   0.824  0.2851  1.4805  0.9999
 4796TIP3    H231576   3.001   3.589   0.915  0.5836 -1.4875  0.6663
 4797TIP3   OH231577   3.606   4.988   5.949 -0.5283  0.3082  0.1160
 4797TIP3    H131578   3.561   4.958   6.028  0.1344  1.4918  0.9566
 4797TIP3    H231579   3.537   5.032   5.899 -0.3946  1.9157  1.2929
 4798TIP3   OH231580   6.578   6.587   1.038  0.8305  0.2983 -0.2118
 4798TIP3    H131581   6.590   6.589   0.943 -0.4095  3.4254 -0.4099
 4798TIP3    H231582   6.494   6.543   1.050  0.2855  1.1725 -0.7037
 4799TIP3   OH231583   0.354   3.555   0.191 -0.0386 -0.2467  0.1381
 4799TIP3    H131584   0.354   3.463   0.167 -0.5364 -0.2531  0.1460
 4799TIP3    H231585   0.332   3.602   0.111  1.7725 -0.0025 -0.2654
 4800TIP3   OH231586   0.592   4.046   0.831 -0.1868 -0.3469 -0.2063
 4800TIP3    H131587   0.523   4.001   0.783 -1.7500  0.8928  0.8078
 4800TIP3    H231588   0.672   4.000   0.805 -1.5719 -3.2383  0.2248
 4801TIP3   OH231589   3.996   2.586   0.386  0.5330 -0.5100 -0.3440
 4801TIP3    H131590   3.958   2.673   0.373 -1.3341 -1.4425 -1.6060
 4801TIP3    H231591   4.090   2.599   0.378  0.1868  0.9982 -3.1655
 4802TIP3   OH231592   0.114   1.537   6.188  0.1057 -0.5682  0.5195
 4802TIP3    H131593   0.197   1.505   6.153  1.2305  0.1627  2.3275
 4802TIP3    H231594   0.118   1.632   6.175  0.9714 -0.1522  3.2225
 4803TIP3   OH231595   1.111   3.624   0.234  0.5088  0.1978 -0.1971
 4803TIP3    H131596   1.094   3.548   0.288 -0.2126  0.5339  0.0527
 4803TIP3    H231597   1.201   3.649   0.255 -0.0456  0.8775  1.5528
 4804TIP3   OH231598   2.576   4.535   0.056  0.3445  0.6399 -0.0185
 4804TIP3    H131599   2.492   4.490   0.041 -0.2746  1.5516  0.6343
 4804TIP3    H231600   2.560   4.592   0.130  1.2505  1.6177 -0.5512
 4805TIP3   OH231601   5.935   3.372   7.243 -0.1249  0.1659 -0.4797
 4805TIP3    H131602   5.844   3.345   7.232  0.3863 -1.7297 -0.3317
 4805TIP3    H231603   5.957   3.418   7.161 -1.6245  2.0552  0.0952
 4806TIP3   OH231604   2.053   6.019   6.006  0.0860  0.2651  0.1090
 4806TIP3    H131605   1.997   6.095   6.024 -0.4600  0.3384 -1.6678
 4806TIP3    H231606   2.105   6.045   5.930 -0.1848 -1.1494 -0.6022
 4807TIP3   OH231607   2.844   2.113   6.982 -0.5238 -0.0475  0.1684
 4807TIP3    H131608   2.894   2.156   6.913  0.0234 -0.3490  0.3690
 4807TIP3    H231609   2.879   2.149   7.064  0.3245 -1.2506  0.3604
 4808TIP3   OH231610   1.646   1.169   6.482  0.0765  0.0104 -0.1834
 4808TIP3    H131611   1.734   1.200   6.460  0.0378 -0.0496 -0.4276
 4808TIP3    H231612   1.661   1.097   6.544  0.1906  0.1289 -0.0735
 4809TIP3   OH231613   3.090   3.663   0.256 -0.0569  0.0886 -0.4685
 4809TIP3    H131614   3.105   3.735   0.196  0.7676  1.0229  0.8052
 4809TIP3    H231615   3.015   3.690   0.308  0.7545  0.4237  0.5611
 4810TIP3   OH231616   1.949   1.060   5.895  0.3032 -0.3511 -0.3826
 4810TIP3    H131617   2.038   1.077   5.863 -0.0114  3.0651  0.2289
 4810TIP3    H231618   1.960   1.041   5.988  0.4139 -0.0836 -0.3405
 4811TIP3   OH231619   0.632   1.627   2.495 -0.6073 -0.7309 -0.2692
 4811TIP3    H131620   0.539   1.617   2.517 -0.1477 -2.3143  1.1951
 4811TIP3    H231621   0.675   1.642   2.579  0.5018 -0.2546 -0.8992
 4812TIP3   OH231622   1.776   0.886   0.636  0.1516 -0.3878  0.2748
 4812TIP3    H131623   1.690   0.926   0.621  0.2810  0.0730  0.7509
 4812TIP3    H231624   1.780   0.872   0.731  0.4170 -0.8389  0.2004
 4813TIP3   OH231625   0.866   5.916   1.961  0.4097  0.1598 -0.0522
 4813TIP3    H131626   0.887   5.903   1.868 -0.9231 -0.8826 -0.2316
 4813TIP3    H231627   0.897   5.836   2.004  1.1157  0.6817  0.4382
 4814TIP3   OH231628   1.783   4.191   0.872 -0.2699 -0.3119 -0.2845
 4814TIP3    H131629   1.713   4.194   0.937  0.7365 -0.5283  0.8354
 4814TIP3    H231630   1.828   4.274   0.882 -1.4280  0.6277 -2.2661
 4815TIP3   OH231631   4.321   3.613   7.074  0.3128  0.3380 -0.2342
 4815TIP3    H131632   4.265   3.651   7.006  0.4492  0.4763 -0.2701
 4815TIP3    H231633   4.262   3.558   7.125 -0.0051  1.0223  0.1509
 4816TIP3   OH231634   0.351   2.911   7.028 -0.1147 -0.5954  0.1665
 4816TIP3    H131635   0.259   2.919   7.004  0.3240 -0.6765 -1.7455
 4816TIP3    H231636   0.352   2.914   7.123 -2.0423 -0.1328  0.2079
 4817TIP3   OH231637   2.226   1.396   6.413 -0.0482 -0.6260 -0.8246
 4817TIP3    H131638   2.212   1.424   6.503  1.2570 -2.1649 -0.1039
 4817TIP3    H231639   2.203   1.472   6.360 -0.2025  0.5195  0.8300
 4818TIP3   OH231640   5.335   4.002   7.462  0.1358 -0.3468  0.1788
 4818TIP3    H131641   5.420   3.990   7.503  0.5027 -0.7826 -0.6962
 4818TIP3    H231642   5.335   3.942   7.388 -0.3213  0.7753 -0.7619
 4819TIP3   OH231643   1.131   1.019   5.935  0.2866 -0.0086  0.0563
 4819TIP3    H131644   1.054   0.963   5.930  1.7718 -2.3596  1.7352
 4819TIP3    H231645   1.127   1.058   6.022 -0.4133  2.1429 -0.8784
 4820TIP3   OH231646   1.704   0.475   0.004 -0.4493  0.5661 -0.4376
 4820TIP3    H131647   1.634   0.539  -0.011 -1.0595  0.4306  1.5342
 4820TIP3    H231648   1.665   0.391  -0.019 -1.0365  0.4722  0.7932
 4821TIP3   OH231649   3.705   2.126   1.142 -0.8877 -0.1666 -0.7076
 4821TIP3    H131650   3.644   2.092   1.207  1.5660  0.6195  2.2497
 4821TIP3    H231651   3.724   2.051   1.086 -1.7486 -1.4288  0.6123
 4822TIP3   OH231652   0.564   4.730   0.166  0.8276 -0.8219  0.5230
 4822TIP3    H131653   0.478   4.692   0.153  1.2276 -0.7533 -3.4577
 4822TIP3    H231654   0.547   4.822   0.186 -0.0412 -0.8530 -0.0252
 4823TIP3   OH231655   1.213   1.631   1.745 -0.2896  0.2410  0.5362
 4823TIP3    H131656   1.263   1.688   1.686  2.1813 -0.6234  1.6638
 4823TIP3    H231657   1.222   1.544   1.707 -0.8484  0.0570  0.8270
 4824TIP3   OH231658   3.318   6.324   6.506 -0.0664 -0.1868  0.2452
 4824TIP3    H131659   3.317   6.420   6.515 -1.9177 -0.1796  0.3652
 4824TIP3    H231660   3.325   6.309   6.412 -0.9569  0.1096  0.1196
 4825TIP3   OH231661   2.020   2.329   2.785  0.0292  0.0883 -0.9243
 4825TIP3    H131662   2.061   2.409   2.755 -0.0795 -0.4139 -2.4774
 4825TIP3    H231663   2.077   2.259   2.753  1.1667 -0.4737  1.9695
 4826TIP3   OH231664   0.643   0.988   5.340  0.0954 -0.4348 -0.6075
 4826TIP3    H131665   0.581   0.950   5.403 -0.3270  1.8211  0.4552
 4826TIP3    H231666   0.698   0.914   5.313 -1.1490 -1.9269  0.6960
 4827TIP3   OH231667   1.689   0.042   1.077  0.3914 -0.6740  0.1824
 4827TIP3    H131668   1.735   0.018   0.997  1.1308  0.5932  0.2067
 4827TIP3    H231669   1.655  -0.041   1.111 -0.4073 -1.1634 -1.7116
 4828TIP3   OH231670   4.591   2.713   7.114 -0.1801 -0.0878  0.0674
 4828TIP3    H131671   4.543   2.696   7.195  1.8647  2.8015  2.0653
 4828TIP3    H231672   4.670   2.661   7.121  0.3567  0.7487  0.3136
 4829TIP3   OH231673   0.589   5.191   7.346 -0.1799 -0.5311  0.2293
 4829TIP3    H131674   0.585   5.281   7.376  0.3724 -0.9592  1.6614
 4829TIP3    H231675   0.535   5.142   7.408 -1.4955 -1.0316 -1.2410
 4830TIP3   OH231676   6.077   3.838   0.332 -0.1579 -0.0581 -0.0589
 4830TIP3    H131677   6.045   3.802   0.249  2.0111  0.7650 -1.3437
 4830TIP3    H231678   6.134   3.911   0.306  0.7978  0.0569  2.1434
 4831TIP3   OH231679   2.762   0.411   7.730 -0.1433  0.0287  0.2883
 4831TIP3    H131680   2.820   0.466   7.677 -0.0513 -0.1127  0.2430
 4831TIP3    H231681   2.785   0.432   7.821  0.1534 -0.2164  0.2682
 4832TIP3   OH231682   2.822   3.603   6.179  0.1270 -0.1670 -0.2365
 4832TIP3    H131683   2.760   3.629   6.110  0.3028  1.8648  0.3121
 4832TIP3    H231684   2.842   3.685   6.225  2.0664 -1.0375  0.5501
 4833TIP3   OH231685   4.406   2.337   1.966 -0.1374  0.3290 -0.2868
 4833TIP3    H131686   4.381   2.359   2.056 -0.0866 -3.1311  0.7472
 4833TIP3    H231687   4.338   2.275   1.937  1.2662 -0.6748 -1.5985
 4834TIP3   OH231688   4.798   0.531   0.252 -0.1226  0.0867  0.4086
 4834TIP3    H131689   4.800   0.481   0.334 -1.0520  1.7026  1.4806
 4834TIP3    H231690   4.861   0.601   0.265  1.0477 -0.6570 -1.0055
 4835TIP3   OH231691   6.451   6.484   1.422  0.3303  0.5742 -0.8836
 4835TIP3    H131692   6.438   6.396   1.387  1.2424  0.2243 -0.3735
 4835TIP3    H231693   6.364   6.511   1.453  0.6647 -1.7172  2.5824
 4836TIP3   OH231694   3.483   5.838   1.360  0.1725  0.4210 -0.2588
 4836TIP3    H131695   3.482   5.834   1.456 -2.1335  1.3008 -0.1890
 4836TIP3    H231696   3.395   5.812   1.334  0.9725 -0.5487 -2.2256
 4837TIP3   OH231697   1.906   3.936   0.816 -0.1513  0.1164  0.0001
 4837TIP3    H131698   1.866   3.883   0.747  0.1180 -0.1055  0.0154
 4837TIP3    H231699   1.845   4.009   0.828 -0.0409  0.3309 -0.6977
 4838TIP3   OH231700   4.035   4.538   1.362 -0.1189  0.1105 -0.5365
 4838TIP3    H131701   4.008   4.608   1.421 -1.1486 -1.3678  0.8117
 4838TIP3    H231702   4.131   4.542   1.363 -0.1587  1.1879 -0.1136
 4839TIP3   OH231703   0.250   5.214   6.591  0.0610 -0.1037 -0.6975
 4839TIP3    H131704   0.177   5.173   6.546 -2.0875  0.3693  2.0894
 4839TIP3    H231705   0.263   5.162   6.670  3.5373 -0.7985 -1.5555
 4840TIP3   OH231706   4.755   6.426   7.388  0.2243 -0.8471  0.4785
 4840TIP3    H131707   4.694   6.353   7.396  0.0903 -0.7302  0.5238
 4840TIP3    H231708   4.759   6.463   7.476 -0.9768  0.2254  0.1053
 4841TIP3   OH231709   3.701   5.506   0.881  0.0668  0.2807  0.7844
 4841TIP3    H131710   3.681   5.597   0.857 -3.0375 -0.5753 -0.4118
 4841TIP3    H231711   3.671   5.498   0.971  0.0885  0.3687  0.7993
 4842TIP3   OH231712   2.948   3.236   6.917 -0.2255 -0.1111 -0.9952
 4842TIP3    H131713   2.897   3.263   6.841 -0.9847  0.4720 -0.2945
 4842TIP3    H231714   2.917   3.147   6.935  0.0468 -0.2987 -1.4397
 4843TIP3   OH231715   1.714   6.361   6.315  0.0090  0.5752  0.5782
 4843TIP3    H131716   1.776   6.312   6.369  2.5335 -0.1737 -2.7325
 4843TIP3    H231717   1.759   6.443   6.295 -0.8429  0.8070 -0.4395
 4844TIP3   OH231718   3.038   0.929   5.997  0.4946  0.1298  0.0026
 4844TIP3    H131719   3.060   0.842   5.963  1.3448  0.2623  0.1977
 4844TIP3    H231720   3.055   0.988   5.924  0.7856  0.2341  0.1553
 4845TIP3   OH231721   3.231   4.248   6.012 -0.1435 -0.7458 -0.8459
 4845TIP3    H131722   3.216   4.238   5.918  0.2674  0.8424 -1.0937
 4845TIP3    H231723   3.172   4.318   6.039  0.5742 -0.3932 -0.1502
 4846TIP3   OH231724   2.725   0.811   6.651  0.1808  0.0536 -0.1029
 4846TIP3    H131725   2.670   0.837   6.577  0.2810 -1.7055 -0.8254
 4846TIP3    H231726   2.745   0.719   6.636  2.0806  0.2347  0.9422
 4847TIP3   OH231727   2.650   3.222   5.594  0.2429 -0.5171 -0.5433
 4847TIP3    H131728   2.580   3.157   5.589 -0.6005  0.4233 -1.5750
 4847TIP3    H231729   2.616   3.290   5.653 -0.1901  0.4392 -1.8440
 4848TIP3   OH231730   1.620   6.453   5.876 -0.5844 -0.1174 -0.6870
 4848TIP3    H131731   1.632   6.528   5.936 -0.4917 -1.8460  1.5984
 4848TIP3    H231732   1.708   6.432   5.845  0.0727 -1.7511  1.9669
 4849TIP3   OH231733   0.468   0.162   7.437 -0.5061 -0.2847  0.4769
 4849TIP3    H131734   0.459   0.246   7.393 -1.5523 -0.2882  0.6408
 4849TIP3    H231735   0.556   0.163   7.475 -0.9222  1.2452  1.4796
 4850TIP3   OH231736   3.053   1.536   1.415  0.7153  0.3174 -0.1568
 4850TIP3    H131737   3.067   1.445   1.387  1.4137  0.2388  0.4273
 4850TIP3    H231738   2.978   1.566   1.363 -1.1299 -1.3745  1.3693
 4851TIP3   OH231739   4.742   0.374   7.427  0.5717 -0.3436 -0.4602
 4851TIP3    H131740   4.782   0.371   7.340 -0.2590 -0.3930 -0.8483
 4851TIP3    H231741   4.654   0.409   7.412  0.6457  0.2741  0.4514
 4852TIP3   OH231742   1.182   3.827   1.418  0.9167  0.3040  0.1273
 4852TIP3    H131743   1.238   3.839   1.341  0.0008  2.3190 -0.2977
 4852TIP3    H231744   1.093   3.828   1.383  0.5460 -0.8041  1.0093
 4853TIP3   OH231745   5.810   3.694   2.394  0.2621 -0.1527 -0.2078
 4853TIP3    H131746   5.888   3.690   2.448 -0.3059  0.7316  0.6961
 4853TIP3    H231747   5.785   3.602   2.381 -0.1688 -0.3738  1.8919
 4854TIP3   OH231748   0.823   3.662   1.499 -0.1687  0.1301  0.1059
 4854TIP3    H131749   0.841   3.727   1.431 -1.6979  1.3107  0.7547
 4854TIP3    H231750   0.841   3.709   1.581 -1.2640 -0.2560  0.5834
 4855TIP3   OH231751   0.575   4.710   1.340  0.1933  0.1259  0.3558
 4855TIP3    H131752   0.506   4.656   1.302 -1.0406  1.8186  0.0737
 4855TIP3    H231753   0.604   4.768   1.269 -1.1522  2.3512  1.4927
 4856TIP3   OH231754   3.977   5.938   0.384  0.3580 -0.7287  0.3267
 4856TIP3    H131755   4.034   5.893   0.322  1.5384 -0.6589  1.3175
 4856TIP3    H231756   3.900   5.881   0.393  0.7590 -1.3620 -0.2247
 4857TIP3   OH231757   1.824   5.712   1.431  0.2885 -0.5145  0.1989
 4857TIP3    H131758   1.751   5.673   1.479 -1.7824  0.0759 -2.2422
 4857TIP3    H231759   1.829   5.802   1.464 -0.3959 -0.4309  0.0909
 4858TIP3   OH231760   6.370   0.700   1.289 -0.0329 -0.0782  0.5710
 4858TIP3    H131761   6.439   0.699   1.356 -0.8156 -1.4861  1.3986
 4858TIP3    H231762   6.344   0.609   1.279 -0.6507  0.2307 -0.9411
 4859TIP3   OH231763   1.049   3.173   1.104  0.0504 -1.1416  0.3309
 4859TIP3    H131764   1.049   3.145   1.195  1.8669 -0.8537  0.4499
 4859TIP3    H231765   1.094   3.257   1.104 -0.3372 -0.9175 -0.7694
 4860TIP3   OH231766   1.923   3.255   0.942  0.1426 -0.1682 -0.1713
 4860TIP3    H131767   1.856   3.323   0.955  0.9635  0.4635  0.9100
 4860TIP3    H231768   1.984   3.294   0.879  1.6832  0.9545  1.9213
 4861TIP3   OH231769   0.504   4.603   2.135 -0.0409  0.7488  0.0215
 4861TIP3    H131770   0.565   4.540   2.096 -0.6353 -0.3389  0.7908
 4861TIP3    H231771   0.559   4.679   2.157  0.7265  0.4391 -0.7470
 4862TIP3   OH231772   6.034   1.941   6.352 -0.5451  0.4302 -0.0609
 4862TIP3    H131773   6.017   1.912   6.262  1.3147 -2.0334  0.2778
 4862TIP3    H231774   6.042   2.036   6.345 -1.8750  0.4557 -2.2220
 4863TIP3   OH231775   0.559   4.735   0.636  0.3975 -0.7559 -0.5006
 4863TIP3    H131776   0.494   4.692   0.581  1.2720  0.0453 -2.2279
 4863TIP3    H231777   0.529   4.826   0.642  2.7606  0.4236 -3.8380
 4864TIP3   OH231778   4.186   6.202   0.368 -0.0839 -0.2084 -0.1845
 4864TIP3    H131779   4.182   6.284   0.318  1.1088 -0.2925 -0.4386
 4864TIP3    H231780   4.105   6.157   0.344 -0.1716  0.3451 -1.0118
 4865TIP3   OH231781   6.123   6.513   6.683  0.0008  0.4406  0.4754
 4865TIP3    H131782   6.158   6.456   6.752  0.5384 -1.7366 -1.4524
 4865TIP3    H231783   6.035   6.537   6.714 -0.5071 -1.9869  1.1498
 4866TIP3   OH231784   5.991   6.187   7.750  0.5926  0.4533  0.0588
 4866TIP3    H131785   5.978   6.092   7.760 -0.2036  0.4722 -0.7095
 4866TIP3    H231786   5.952   6.208   7.665  0.5197  1.5200  0.3405
 4867TIP3   OH231787   5.708   5.214   6.642  0.4566 -0.1019  0.5803
 4867TIP3    H131788   5.776   5.266   6.685 -0.6931  2.4796 -0.5248
 4867TIP3    H231789   5.731   5.217   6.549  0.7158 -2.2296  0.5289
 4868TIP3   OH231790   2.186   0.074   5.583 -0.2071  0.0425  0.9205
 4868TIP3    H131791   2.213   0.162   5.554  0.4495 -0.2335  0.6739
 4868TIP3    H231792   2.232   0.061   5.666  1.8213 -1.0745 -0.2788
 4869TIP3   OH231793   2.992   5.367   6.438 -0.4348 -0.2140 -0.0130
 4869TIP3    H131794   3.042   5.443   6.409 -0.5526  0.2151  0.8672
 4869TIP3    H231795   2.939   5.400   6.510 -0.7823 -1.0441  0.1187
 4870TIP3   OH231796   0.041   2.117   2.026  0.1117 -0.4102  0.1180
 4870TIP3    H131797   0.065   2.169   2.102 -2.4184  0.9136  0.1073
 4870TIP3    H231798   0.012   2.033   2.062  2.2615 -1.1469  0.2795
 4871TIP3   OH231799   2.516   6.460   6.798 -0.5396  0.1227  0.3120
 4871TIP3    H131800   2.601   6.470   6.841 -0.8168 -0.1322  0.9297
 4871TIP3    H231801   2.499   6.546   6.759  0.1944  0.0493 -0.1823
 4872TIP3   OH231802   4.775   2.696   1.455  0.1613 -0.0020 -0.2731
 4872TIP3    H131803   4.855   2.655   1.423  0.1443 -0.9309  0.8208
 4872TIP3    H231804   4.707   2.667   1.394  0.2300 -1.2480  0.2149
 4873TIP3   OH231805   0.686   1.693   7.262  0.5032 -0.6535  0.3427
 4873TIP3    H131806   0.634   1.616   7.238  0.6816 -0.3409 -1.1693
 4873TIP3    H231807   0.637   1.734   7.333 -1.5856 -0.1407 -1.2789
 4874TIP3   OH231808   2.681   6.454   7.565 -0.6661  0.3836 -0.2964
 4874TIP3    H131809   2.675   6.549   7.560 -1.4294  0.7245  3.5336
 4874TIP3    H231810   2.590   6.426   7.581 -0.8560 -1.3453 -3.5433
 4875TIP3   OH231811   1.821   4.422   6.820  0.0393 -0.6575 -0.0278
 4875TIP3    H131812   1.783   4.398   6.736 -0.8640  0.5559  0.0027
 4875TIP3    H231813   1.906   4.461   6.798 -0.5353  0.3914 -0.4779
 4876TIP3   OH231814   0.275   6.397   6.007 -0.2264  0.3632 -0.6678
 4876TIP3    H131815   0.209   6.379   6.073 -0.6974 -0.3106 -1.2988
 4876TIP3    H231816   0.348   6.341   6.030  0.3379  1.4646  0.3109
 4877TIP3   OH231817   0.376   1.513   7.729 -0.0068  0.5197  0.3940
 4877TIP3    H131818   0.282   1.496   7.724  0.4777 -2.1309 -1.0246
 4877TIP3    H231819   0.394   1.568   7.653 -0.1196 -0.6854 -0.5277
 4878TIP3   OH231820   4.834   5.341   1.900 -0.7419 -0.4029  0.7215
 4878TIP3    H131821   4.905   5.277   1.903  0.4963  0.8823 -0.1009
 4878TIP3    H231822   4.762   5.293   1.859  0.6171 -0.9230 -1.2430
 4879TIP3   OH231823   6.401   0.389   7.257  0.4310 -0.0388  0.0510
 4879TIP3    H131824   6.324   0.389   7.315 -0.5005 -0.4551 -1.1345
 4879TIP3    H231825   6.431   0.298   7.257  0.0719 -0.1625 -0.5566
 4880TIP3   OH231826   4.473   5.864   1.448  0.0937 -0.4709  0.8175
 4880TIP3    H131827   4.388   5.896   1.477  0.2675 -0.3943  1.2490
 4880TIP3    H231828   4.462   5.849   1.354  0.5358  2.7519  0.1237
 4881TIP3   OH231829   2.171   2.763   6.584 -0.5250 -0.3821 -0.2033
 4881TIP3    H131830   2.103   2.798   6.642  0.5980 -0.0678  0.9627
 4881TIP3    H231831   2.245   2.745   6.642  0.3945 -0.7226 -1.4451
 4882TIP3   OH231832   4.850   4.207   0.727 -0.1724  0.0245 -0.4840
 4882TIP3    H131833   4.787   4.257   0.675  0.7960  0.0706 -1.6684
 4882TIP3    H231834   4.898   4.155   0.662  0.0302 -1.1077  0.5420
 4883TIP3   OH231835   6.255   6.026   6.417  0.0950 -0.6582 -0.1151
 4883TIP3    H131836   6.268   6.095   6.352  2.0305 -1.4960 -0.6756
 4883TIP3    H231837   6.196   5.964   6.375 -1.1033  0.2666  0.1297
 4884TIP3   OH231838   4.040   4.044   6.250  0.5928 -0.6691 -0.5290
 4884TIP3    H131839   4.073   3.971   6.197  0.9070  0.5045 -2.0278
 4884TIP3    H231840   4.109   4.111   6.243  0.7096 -0.5214  1.5214
 4885TIP3   OH231841   3.589   6.509   1.072 -0.3155 -0.6924  0.3057
 4885TIP3    H131842   3.547   6.466   0.997 -1.2568  2.4826 -1.1578
 4885TIP3    H231843   3.517   6.552   1.117  0.8242  1.6233  0.0430
 4886TIP3   OH231844   3.901   0.379   1.160 -0.2250 -0.2320 -0.0976
 4886TIP3    H131845   3.911   0.289   1.192 -2.6486 -0.9366 -1.0263
 4886TIP3    H231846   3.962   0.386   1.088  1.4627 -0.4089  1.2567
 4887TIP3   OH231847   5.660   1.506   1.470  0.9975  0.5042 -0.7409
 4887TIP3    H131848   5.687   1.598   1.465  1.4592  0.6441  2.3192
 4887TIP3    H231849   5.728   1.458   1.423  2.3485  1.5247  0.1205
 4888TIP3   OH231850   4.170   3.993   5.930  0.1373  0.9653  0.4978
 4888TIP3    H131851   4.102   3.969   5.867  0.5079  0.0424  0.4355
 4888TIP3    H231852   4.233   3.920   5.927  0.4132  1.1396  1.5648
 4889TIP3   OH231853   6.563   5.413   1.310  0.1130 -0.4070  0.6454
 4889TIP3    H131854   6.615   5.334   1.325  0.9633  0.0142 -0.0028
 4889TIP3    H231855   6.492   5.407   1.373  0.5620 -1.3414  1.0845
 4890TIP3   OH231856   1.632   6.232   0.332 -0.0758  0.4261  0.3708
 4890TIP3    H131857   1.726   6.242   0.318  0.4646 -1.6016  1.9479
 4890TIP3    H231858   1.603   6.315   0.370  0.6337  1.7682 -1.8407
 4891TIP3   OH231859   2.032   3.321   0.705 -0.0535 -0.2698 -0.1715
 4891TIP3    H131860   2.009   3.339   0.614 -0.5800  2.2941  0.3802
 4891TIP3    H231861   2.128   3.328   0.708 -0.0608 -0.0479 -0.4645
 4892TIP3   OH231862   3.378   2.475   1.885  0.1211 -0.1735 -0.2688
 4892TIP3    H131863   3.383   2.386   1.918 -1.2717 -0.4545 -0.7491
 4892TIP3    H231864   3.419   2.529   1.953 -1.2891 -0.8976  1.2385
 4893TIP3   OH231865   6.402   2.211   2.117  0.1160  0.2711 -0.9124
 4893TIP3    H131866   6.440   2.180   2.198 -1.2972  0.1193 -0.2749
 4893TIP3    H231867   6.468   2.194   2.050  1.5990  1.0887  0.3063
 4894TIP3   OH231868   4.102   2.609   6.859  0.6896  0.3175  0.2929
 4894TIP3    H131869   4.126   2.677   6.797 -0.8533  2.0710  1.4727
 4894TIP3    H231870   4.174   2.546   6.856  0.8334  0.5000 -2.9265
 4895TIP3   OH231871   6.473   4.619   1.620  0.0167  0.0842  0.5379
 4895TIP3    H131872   6.521   4.646   1.698  1.6229 -0.0502 -0.3665
 4895TIP3    H231873   6.491   4.525   1.611 -0.2384  0.0742  0.0678
 4896TIP3   OH231874   6.137   2.149   0.021  0.7079 -0.1517  0.5040
 4896TIP3    H131875   6.080   2.074   0.004  1.2838 -0.5976  0.4853
 4896TIP3    H231876   6.170   2.174  -0.066  2.3447 -1.3758  0.7167
 4897TIP3   OH231877   1.659   2.206   6.719  0.1775  0.5254  0.6414
 4897TIP3    H131878   1.751   2.229   6.708  0.4096 -0.7420 -0.3894
 4897TIP3    H231879   1.646   2.204   6.813  0.6942  2.5296  0.8021
 4898TIP3   OH231880   0.174   2.493   0.804  0.2883 -0.0906 -0.1207
 4898TIP3    H131881   0.120   2.572   0.808 -0.5704 -0.6509 -0.3887
 4898TIP3    H231882   0.187   2.478   0.710 -1.2521 -1.3785 -0.1711
 4899TIP3   OH231883   6.056   0.422   6.903  0.1711  0.2757 -0.0001
 4899TIP3    H131884   6.122   0.455   6.843  0.6108  0.6466  0.6696
 4899TIP3    H231885   6.052   0.328   6.886  2.1255 -0.0609  1.1134
 4900TIP3   OH231886   6.547   4.026   7.080 -0.3658  0.0900  0.3639
 4900TIP3    H131887   6.490   3.952   7.103  0.1440 -0.6994 -0.8008
 4900TIP3    H231888   6.618   4.023   7.144  0.5947 -1.5572 -0.6974
 4901TIP3   OH231889   0.469   5.519   0.651  0.4790  0.0672 -0.2409
 4901TIP3    H131890   0.404   5.520   0.721 -0.2115 -0.3923 -0.8611
 4901TIP3    H231891   0.418   5.505   0.571  1.3712 -0.6612 -0.6978
 4902TIP3   OH231892   6.302   6.252   1.325  0.1726  0.4932 -0.2627
 4902TIP3    H131893   6.237   6.232   1.392 -1.2653  0.5483 -1.5790
 4902TIP3    H231894   6.335   6.166   1.298 -0.4572  0.3607 -0.6266
 4903TIP3   OH231895   1.095   5.574   1.484 -0.2643  0.7590  0.0878
 4903TIP3    H131896   1.189   5.559   1.477 -0.4816 -0.3335 -0.6720
 4903TIP3    H231897   1.062   5.501   1.536 -0.7465  0.9447  0.0461
 4904TIP3   OH231898   1.495   0.484   0.641 -0.3871 -0.1895 -0.2513
 4904TIP3    H131899   1.480   0.577   0.624 -2.5222 -0.5398 -0.5361
 4904TIP3    H231900   1.446   0.466   0.721  1.9401 -0.6133  1.1685
 4905TIP3   OH231901   0.844   2.466   1.908  0.0360 -0.2183  0.1869
 4905TIP3    H131902   0.811   2.524   1.976  0.9501  1.1683 -0.5021
 4905TIP3    H231903   0.929   2.504   1.884 -0.4388 -0.4209 -2.0029
 4906TIP3   OH231904   2.497   3.581   7.677 -0.5213  0.6284 -0.3021
 4906TIP3    H131905   2.405   3.608   7.677 -0.5457  0.5426  0.1697
 4906TIP3    H231906   2.528   3.603   7.588 -0.8451  1.1682 -0.2894
 4907TIP3   OH231907   3.607   2.233   5.168  0.3180 -0.5950  0.1087
 4907TIP3    H131908   3.563   2.273   5.093  2.8334  0.2050 -1.0801
 4907TIP3    H231909   3.671   2.172   5.128  1.6674 -0.2038  1.5663
 4908TIP3   OH231910   4.148   3.722   6.880 -0.9393  0.5368  0.0766
 4908TIP3    H131911   4.075   3.676   6.840 -3.0020  1.5724  2.3734
 4908TIP3    H231912   4.174   3.789   6.816 -2.2317  0.3527 -0.6577
 4909TIP3   OH231913   1.329   0.744   0.593  0.1400 -0.1308 -0.1381
 4909TIP3    H131914   1.278   0.790   0.660  1.2319 -0.2294  0.8024
 4909TIP3    H231915   1.296   0.778   0.510 -0.7154  0.5763  0.4684
 4910TIP3   OH231916   3.729   1.363   7.667  0.1432  0.8316 -0.2045
 4910TIP3    H131917   3.791   1.293   7.690 -0.5608 -0.9307 -3.2446
 4910TIP3    H231918   3.650   1.317   7.640 -1.4599  2.9663  0.6273
 4911TIP3   OH231919   0.267   3.554   0.450 -0.0356  0.1313 -0.6159
 4911TIP3    H131920   0.313   3.549   0.366  0.3476 -2.2424 -0.3383
 4911TIP3    H231921   0.175   3.564   0.426  0.2521  1.4026 -1.2573
 4912TIP3   OH231922   6.006   5.655   7.117 -0.1129  0.7380  0.0244
 4912TIP3    H131923   5.983   5.711   7.043  1.1522 -0.5448 -1.4324
 4912TIP3    H231924   6.070   5.706   7.168  1.7583  0.3617 -1.7996
 4913TIP3   OH231925   5.425   6.183   0.037  0.3683  0.8440  0.2668
 4913TIP3    H131926   5.331   6.174   0.054  0.1057 -0.0700 -1.4817
 4913TIP3    H231927   5.435   6.165  -0.056  2.7321 -3.3204  1.0571
 4914TIP3   OH231928   1.317   5.555   5.866  0.9978 -0.2780 -0.1643
 4914TIP3    H131929   1.340   5.476   5.817 -1.0225 -2.8376  2.5916
 4914TIP3    H231930   1.240   5.589   5.821  1.7516  0.0455 -1.2480
 4915TIP3   OH231931   3.626   5.353   7.177  0.1150 -0.2528 -0.3830
 4915TIP3    H131932   3.576   5.435   7.171 -2.2843 -1.6057 -0.1788
 4915TIP3    H231933   3.603   5.306   7.097  1.4177 -0.7796 -0.4638
 4916TIP3   OH231934   1.877   6.360   5.772  0.0797  0.1758 -0.0353
 4916TIP3    H131935   1.847   6.321   5.689 -0.6047  1.5930 -0.4868
 4916TIP3    H231936   1.961   6.400   5.751 -1.4485  3.2463 -0.9712
 4917TIP3   OH231937   6.157   2.393   1.283  0.7808  0.3020  0.5404
 4917TIP3    H131938   6.242   2.352   1.271  0.1483 -1.0350  0.3568
 4917TIP3    H231939   6.097   2.320   1.300 -0.2037  1.2622  1.4057
 4918TIP3   OH231940   0.653   5.662   5.743 -0.2378 -0.1390  0.1916
 4918TIP3    H131941   0.692   5.672   5.656  1.1381  0.7534  0.8739
 4918TIP3    H231942   0.728   5.643   5.801 -1.1529 -0.9245  1.1584
 4919TIP3   OH231943   1.184   0.790   6.302  0.9649  0.5824 -0.1965
 4919TIP3    H131944   1.229   0.710   6.328  0.1932  0.1141 -0.2443
 4919TIP3    H231945   1.093   0.763   6.291  0.7618  1.3910 -0.5827
 4920TIP3   OH231946   3.870   3.677   0.275  0.0508 -0.0456  0.3926
 4920TIP3    H131947   3.925   3.682   0.353  1.2200  0.1540 -0.4149
 4920TIP3    H231948   3.783   3.654   0.308  0.2988  0.9421  1.8336
 4921TIP3   OH231949   4.963   3.905   1.592  0.4351 -0.3438 -0.0213
 4921TIP3    H131950   4.949   3.988   1.637  2.1854  0.1796 -0.3742
 4921TIP3    H231951   4.969   3.929   1.499  0.8699 -0.8615 -0.1340
 4922TIP3   OH231952   5.858   1.912   1.064 -0.6487 -0.5334  0.4250
 4922TIP3    H131953   5.909   1.909   1.145  0.4620  3.9164  0.1315
 4922TIP3    H231954   5.768   1.898   1.093 -0.1923  0.1445  2.3522
 4923TIP3   OH231955   3.004   0.560   1.610 -0.0012  0.1356 -0.0040
 4923TIP3    H131956   3.008   0.604   1.695 -0.2017  2.2752 -1.0107
 4923TIP3    H231957   3.019   0.631   1.547 -0.3895 -1.2870 -1.7628
 4924TIP3   OH231958   1.055   4.910   7.637  0.2867 -0.0107  0.1437
 4924TIP3    H131959   1.119   4.939   7.572  0.7726  0.6958  0.9143
 4924TIP3    H231960   1.090   4.826   7.668  0.0434 -0.3594 -0.5068
 4925TIP3   OH231961   3.021   4.197   1.704 -0.3280 -0.4280 -0.3208
 4925TIP3    H131962   3.066   4.145   1.637 -1.3814 -0.8623 -0.7168
 4925TIP3    H231963   2.953   4.138   1.737 -1.8062  0.8083 -1.0527
 4926TIP3   OH231964   6.109   2.742   1.587  0.0963 -0.0436 -0.1869
 4926TIP3    H131965   6.039   2.805   1.575  0.7830  0.7522 -0.0852
 4926TIP3    H231966   6.078   2.662   1.543 -0.9837  0.2018  0.1143
 4927TIP3   OH231967   3.985   2.170   0.520  0.4679 -0.2173  0.4877
 4927TIP3    H131968   4.068   2.219   0.523 -0.4187  1.5312 -1.4955
 4927TIP3    H231969   4.005   2.088   0.567  2.9663  0.6118  1.0645
 4928TIP3   OH231970   5.047   5.000   7.408 -0.0178 -0.3413  0.1408
 4928TIP3    H131971   4.982   4.930   7.398 -0.5023  0.2955 -1.6801
 4928TIP3    H231972   5.129   4.962   7.377 -0.2360 -0.2004 -0.6423
 4929TIP3   OH231973   1.560   2.814   6.589 -0.2750 -0.0747 -0.1484
 4929TIP3    H131974   1.637   2.785   6.540 -1.0105 -1.8845 -0.3426
 4929TIP3    H231975   1.591   2.826   6.679  0.7413  1.7201 -0.6933
 4930TIP3   OH231976   4.207   6.163   6.509  0.0792  0.0924  0.2223
 4930TIP3    H131977   4.221   6.136   6.599 -0.4418  0.7655  0.5103
 4930TIP3    H231978   4.201   6.081   6.460 -3.0684 -0.4221  1.2839
 4931TIP3   OH231979   4.372   0.689   0.352 -0.5465 -0.0202  0.3156
 4931TIP3    H131980   4.395   0.748   0.280  1.0910 -3.5178 -2.3034
 4931TIP3    H231981   4.433   0.712   0.422  0.6618  0.7813 -0.9528
 4932TIP3   OH231982   5.688   6.127   7.540  0.4975 -0.2690  0.1954
 4932TIP3    H131983   5.780   6.133   7.515  0.7280 -0.1174  1.0301
 4932TIP3    H231984   5.677   6.195   7.607  0.3376 -1.7391  1.7072
 4933TIP3   OH231985   1.735   0.747   1.382 -0.6735  0.4936  0.3681
 4933TIP3    H131986   1.670   0.709   1.322 -0.4663  1.8240 -0.7572
 4933TIP3    H231987   1.685   0.767   1.461 -1.6569  1.4048 -0.4483
 4934TIP3   OH231988   0.187   2.600   7.747 -0.1051  0.3113  0.3315
 4934TIP3    H131989   0.209   2.562   7.662 -1.1105 -1.2764  0.7334
 4934TIP3    H231990   0.104   2.646   7.732  0.5932  1.5307  0.0831
 4935TIP3   OH231991   1.915   2.067   2.691  0.2569  0.0222  0.2033
 4935TIP3    H131992   1.978   2.038   2.625 -1.9286 -0.2739 -1.9184
 4935TIP3    H231993   1.920   2.000   2.759  0.1195 -1.7221 -1.3804
 4936TIP3   OH231994   3.675   5.234   6.030 -0.3077  0.1353 -0.1804
 4936TIP3    H131995   3.695   5.141   6.023  1.7147  0.2937  2.1517
 4936TIP3    H231996   3.630   5.255   5.948 -1.0420 -2.9014 -0.6715
 4937TIP3   OH231997   0.764   3.244   2.500 -0.4219  0.0600  0.3258
 4937TIP3    H131998   0.697   3.175   2.501 -0.2559 -0.2024  3.3162
 4937TIP3    H231999   0.802   3.240   2.412 -0.9263 -3.1572  0.1289
 4938TIP3   OH232000   4.589   3.590   7.012  0.4468 -0.0186  0.0037
 4938TIP3    H132001   4.617   3.582   6.921  0.2199 -0.9205  0.0050
 4938TIP3    H232002   4.497   3.613   7.006  0.5435  0.3837  0.0109
 4939TIP3   OH232003   6.503   6.303   0.858  0.3332 -0.3948 -0.1834
 4939TIP3    H132004   6.468   6.264   0.778 -2.7469  0.6868  0.5254
 4939TIP3    H232005   6.544   6.385   0.829  0.1076 -0.4818 -0.7543
 4940TIP3   OH232006   0.268   4.511   2.230  0.2612  0.5945 -0.4785
 4940TIP3    H132007   0.350   4.552   2.203  0.3524 -0.5314 -2.0207
 4940TIP3    H232008   0.283   4.417   2.218 -0.6728  0.2250  0.9125
 4941TIP3   OH232009   0.812   3.843   0.757 -0.4440 -0.1376 -0.2023
 4941TIP3    H132010   0.889   3.899   0.764  0.8408 -1.8404  0.0745
 4941TIP3    H232011   0.773   3.866   0.672  0.2173  0.9229 -0.2290
 4942TIP3   OH232012   5.418   3.855   1.796  0.1617 -0.5611  0.2416
 4942TIP3    H132013   5.352   3.891   1.855 -0.0495 -0.4992 -0.0271
 4942TIP3    H232014   5.431   3.765   1.825  0.2375 -0.4557  0.5328
 4943TIP3   OH232015   0.611   0.375   1.316 -0.4464  0.0317  0.0989
 4943TIP3    H132016   0.601   0.369   1.411 -0.0102 -0.2354  0.1336
 4943TIP3    H232017   0.696   0.334   1.298 -0.2209  0.6656 -0.3373
 4944TIP3   OH232018   5.415   4.014   0.494 -0.3620  0.3033  0.1669
 4944TIP3    H132019   5.348   3.960   0.536  0.7443 -0.4824  0.9814
 4944TIP3    H232020   5.426   3.976   0.407  1.9157 -2.2744  1.4299
 4945TIP3   OH232021   1.856   6.565   6.223  0.4299 -0.2132 -0.3679
 4945TIP3    H132022   1.896   6.518   6.150  1.9064 -1.5102  1.1996
 4945TIP3    H232023   1.915   6.550   6.297 -1.2610  0.6232  1.2346
 4946TIP3   OH232024   5.653   4.024   0.059  0.4510  0.1873 -0.1565
 4946TIP3    H132025   5.573   4.076   0.048 -0.6687 -1.3113  0.5434
 4946TIP3    H232026   5.662   3.978  -0.025  0.2550 -0.0682 -0.0386
 4947TIP3   OH232027   1.844   5.026   0.032 -0.2679 -0.7136 -0.1647
 4947TIP3    H132028   1.788   5.057  -0.039 -0.9561  0.0913  0.6940
 4947TIP3    H232029   1.898   5.102   0.054 -1.6657 -0.1871  1.6826
 4948TIP3   OH232030   3.411   0.453   5.936  0.2944  0.2740  0.6623
 4948TIP3    H132031   3.351   0.416   5.871  0.4906  2.4810 -0.8801
 4948TIP3    H232032   3.455   0.377   5.974 -1.1673 -1.1952 -0.4646
 4949TIP3   OH232033   0.425   0.852   0.941  0.0271 -0.2589  0.4183
 4949TIP3    H132034   0.416   0.859   0.846 -1.0397  0.5676  0.5522
 4949TIP3    H232035   0.516   0.827   0.955  0.3281  0.0783 -0.8018
 4950TIP3   OH232036   4.098   2.374   7.242 -0.4202 -0.1839 -0.0353
 4950TIP3    H132037   4.072   2.438   7.175 -2.2086  0.5837  1.2956
 4950TIP3    H232038   4.103   2.425   7.322 -1.3119 -1.6085  0.9619
 4951TIP3   OH232039   0.608   3.986   1.320  0.2728 -0.1610 -1.3241
 4951TIP3    H132040   0.521   4.000   1.358  1.3375  3.2804  0.3047
 4951TIP3    H232041   0.653   3.931   1.384  0.1553  0.5262 -0.6253
 4952TIP3   OH232042   1.331   5.125   0.400 -0.1071  0.9399 -0.4949
 4952TIP3    H132043   1.333   5.198   0.338  0.0782  2.5252  1.2815
 4952TIP3    H232044   1.272   5.155   0.469 -4.2958 -2.6347 -1.9928
 4953TIP3   OH232045   4.336   0.296   6.011 -0.1594  0.0798 -0.1023
 4953TIP3    H132046   4.400   0.303   5.941  0.1102 -4.8432 -0.7492
 4953TIP3    H232047   4.384   0.259   6.085 -1.6108 -0.8786  0.4236
 4954TIP3   OH232048   0.835   5.758   0.157  0.4334  0.7228 -0.2340
 4954TIP3    H132049   0.930   5.756   0.145  0.4103 -0.3367 -0.3108
 4954TIP3    H232050   0.800   5.782   0.071  0.6827  3.0626  0.2427
 4955TIP3   OH232051   3.983   1.967   1.042 -0.2672  0.2832  0.4691
 4955TIP3    H132052   4.024   2.051   1.060  0.0507  0.1764  0.2369
 4955TIP3    H232053   4.027   1.934   0.964 -0.8486  0.2089  0.1625
 4956TIP3   OH232054   4.297   3.042   7.303 -0.1139 -0.1371 -0.4910
 4956TIP3    H132055   4.385   3.033   7.267  0.1034 -0.0964  0.0239
 4956TIP3    H232056   4.239   3.042   7.226  0.4041  0.7600 -0.8909
 4957TIP3   OH232057   4.520   6.114   6.336  0.3261  0.4028 -0.5134
 4957TIP3    H132058   4.435   6.157   6.325  0.3779  0.6377 -0.0311
 4957TIP3    H232059   4.578   6.163   6.277  0.1396  0.2765 -0.8033
 4958TIP3   OH232060   3.798   1.336   1.653  0.1565  0.4358 -0.1016
 4958TIP3    H132061   3.845   1.328   1.570  0.7882 -1.0455  0.3797
 4958TIP3    H232062   3.808   1.251   1.695  0.3311  1.3362  1.7624
 4959TIP3   OH232063   6.582   1.520   1.171 -0.0787 -0.1597 -0.1033
 4959TIP3    H132064   6.558   1.447   1.113 -1.0326  0.1184 -0.0812
 4959TIP3    H232065   6.624   1.584   1.114 -1.9608  0.5774 -0.7341
 4960TIP3   OH232066   3.330   1.563   0.510  0.3086 -0.5669 -0.2440
 4960TIP3    H132067   3.418   1.601   0.499 -0.5808  2.2220  1.1966
 4960TIP3    H232068   3.346   1.471   0.530  2.7831 -0.5816 -1.7825
 4961TIP3   OH232069   3.930   2.346   0.283 -0.4116  0.3791 -0.0744
 4961TIP3    H132070   3.950   2.436   0.309 -0.8290  0.5001 -0.1626
 4961TIP3    H232071   3.963   2.292   0.355  2.9531  0.3081 -1.4852
 4962TIP3   OH232072   0.378   4.148   0.284  0.9345 -0.7119  0.0854
 4962TIP3    H132073   0.296   4.189   0.314  1.2191 -0.2190  0.2081
 4962TIP3    H232074   0.371   4.057   0.313  0.7320 -0.5047  0.7045
 4963TIP3   OH232075   3.217   3.115   6.683  0.4937 -0.7509 -0.2740
 4963TIP3    H132076   3.182   3.053   6.748 -0.5799  0.3341  0.2178
 4963TIP3    H232077   3.294   3.153   6.726 -0.7563  0.6681  0.8272
 4964TIP3   OH232078   4.500   2.682   6.624 -0.4307 -0.1133  0.2050
 4964TIP3    H132079   4.489   2.627   6.701 -0.0917 -2.3603 -1.2573
 4964TIP3    H232080   4.491   2.771   6.657 -2.2345 -1.0295  2.5025
 4965TIP3   OH232081   3.203   1.520   6.850  0.3796  0.2578  0.5303
 4965TIP3    H132082   3.294   1.540   6.875  0.9635 -1.4625 -0.1053
 4965TIP3    H232083   3.201   1.536   6.756 -0.7797  2.9853  0.9294
 4966TIP3   OH232084   0.367   4.635   1.688  0.9608 -0.0487 -0.3171
 4966TIP3    H132085   0.390   4.710   1.743 -2.2452  0.6841  0.2559
 4966TIP3    H232086   0.344   4.675   1.604  1.7892 -0.7304 -0.8869
 4967TIP3   OH232087   5.723   0.337   6.350  0.1535  0.0032  0.3791
 4967TIP3    H132088   5.806   0.342   6.397 -0.9189  1.0628  2.2533
 4967TIP3    H232089   5.656   0.330   6.418 -1.2984 -1.3159 -1.0892
 4968TIP3   OH232090   0.500   3.634   7.006  0.7373 -0.2877 -0.3524
 4968TIP3    H132091   0.412   3.629   7.042  1.3258  0.8238  1.3521
 4968TIP3    H232092   0.524   3.543   6.988 -0.1968 -0.7457  0.6157
 4969TIP3   OH232093   3.025   3.279   1.662  0.8395  0.2904  0.5312
 4969TIP3    H132094   3.010   3.223   1.738  1.9580  0.7659  1.1388
 4969TIP3    H232095   2.945   3.331   1.654 -0.6713 -2.0612 -0.6919
 4970TIP3   OH232096   0.844   2.301   6.221  0.0989  0.0400 -0.5609
 4970TIP3    H132097   0.848   2.211   6.189  1.2488 -0.2088  0.2229
 4970TIP3    H232098   0.752   2.313   6.247 -0.3860 -0.4231 -1.9707
 4971TIP3   OH232099   3.337   1.746   7.444 -0.3876  0.4121 -0.5050
 4971TIP3    H132100   3.269   1.679   7.438  0.1845 -0.7171  2.9085
 4971TIP3    H232101   3.289   1.829   7.439 -1.7780 -0.3289 -0.1282
 4972TIP3   OH232102   0.383   4.279   2.136  0.7886 -0.3280 -0.8622
 4972TIP3    H132103   0.381   4.270   2.040  0.3062 -1.9532 -0.7297
 4972TIP3    H232104   0.475   4.296   2.156  0.9624 -0.3472 -1.5850
 4973TIP3   OH232105   3.909   1.997   0.296 -0.7279  0.9102  0.5092
 4973TIP3    H132106   3.924   2.066   0.360 -1.1666  1.7030 -0.2216
 4973TIP3    H232107   3.990   1.994   0.245 -0.6571  0.7781  0.6263
 4974TIP3   OH232108   6.360   2.762   0.756  0.5260 -0.4267  0.1383
 4974TIP3    H132109   6.288   2.823   0.776 -0.0239 -0.3276 -1.9127
 4974TIP3    H232110   6.321   2.699   0.697  1.7445 -1.3490  0.2931
 4975TIP3   OH232111   0.704   4.955   1.456  0.1331 -0.2531 -0.0739
 4975TIP3    H132112   0.704   5.021   1.387 -0.1590  1.1813  1.2339
 4975TIP3    H232113   0.641   4.889   1.426 -1.3477  1.2197 -0.4141
 4976TIP3   OH232114   5.434   5.266   0.888  0.5301 -0.1840  0.7943
 4976TIP3    H132115   5.495   5.209   0.934  1.1815  1.4389  2.0343
 4976TIP3    H232116   5.487   5.341   0.861 -0.4164  0.1272 -0.3073
 4977TIP3   OH232117   4.670   3.712   1.424  0.1060 -0.6017 -0.1274
 4977TIP3    H132118   4.641   3.684   1.511  0.6595  2.0917  1.0175
 4977TIP3    H232119   4.593   3.704   1.369 -0.9263 -0.0868  1.1976
 4978TIP3   OH232120   3.152   2.329   2.381 -0.4941 -0.1520 -0.1100
 4978TIP3    H132121   3.115   2.245   2.354  1.0497 -0.4996 -1.3024
 4978TIP3    H232122   3.088   2.394   2.351  0.5463 -0.5989 -3.8379
 4979TIP3   OH232123   1.872   0.103   0.882  0.4258 -0.2205  0.0285
 4979TIP3    H132124   1.845   0.194   0.871  0.7922  0.1496  1.9089
 4979TIP3    H232125   1.963   0.108   0.909  0.9169 -1.2413 -1.3222
 4980TIP3   OH232126   4.413   2.018   7.608 -0.0346 -0.5414  0.3876
 4980TIP3    H132127   4.337   2.061   7.645  0.6779  1.0035  0.1180
 4980TIP3    H232128   4.380   1.934   7.575 -2.0791  0.9344 -1.6084
 4981TIP3   OH232129   0.551   6.525   6.205  0.3388 -0.3980  0.1331
 4981TIP3    H132130   0.555   6.536   6.110 -0.7791  1.1445  0.2227
 4981TIP3    H232131   0.611   6.591   6.240 -1.3969  1.0623  0.5245
 4982TIP3   OH232132   2.318   5.255   6.887  0.4371  0.2464 -0.2041
 4982TIP3    H132133   2.280   5.284   6.805  0.9121  0.5071 -0.3392
 4982TIP3    H232134   2.385   5.321   6.907 -0.6320  0.9569  1.1232
 4983TIP3   OH232135   0.421   4.207   7.655 -0.4275  0.5022 -0.1230
 4983TIP3    H132136   0.470   4.130   7.626 -1.9263  0.2264 -2.1631
 4983TIP3    H232137   0.363   4.174   7.724 -2.0340 -0.6126 -1.8985
 4984TIP3   OH232138   3.746   4.751   2.026  0.6014  0.1541  0.2939
 4984TIP3    H132139   3.828   4.768   1.979  1.0547 -1.3469  0.4772
 4984TIP3    H232140   3.730   4.658   2.012 -0.6533  0.2586  0.9429
 4985TIP3   OH232141   3.043   1.671   7.563 -0.0737 -0.0483 -0.7337
 4985TIP3    H132142   3.073   1.749   7.609 -2.4444 -0.1777  1.2148
 4985TIP3    H232143   2.948   1.679   7.562 -0.3377 -2.5862 -1.0677
 4986TIP3   OH232144   2.796   5.762   6.957  0.1339  0.2750 -0.6107
 4986TIP3    H132145   2.864   5.773   6.890 -0.9318 -2.5080 -2.3085
 4986TIP3    H232146   2.830   5.694   7.015 -0.0939  0.7465  0.0794
 4987TIP3   OH232147   6.451   2.939   7.177  0.3225  0.2140  0.2187
 4987TIP3    H132148   6.438   2.956   7.270 -0.2254 -1.3977  0.4802
 4987TIP3    H232149   6.454   3.025   7.136 -0.6529  0.9266  1.5725
 4988TIP3   OH232150   5.465   1.056   6.760  0.3576  0.3646  0.0111
 4988TIP3    H132151   5.432   1.047   6.849  0.8727  1.4615  0.3216
 4988TIP3    H232152   5.541   0.998   6.756 -0.3088 -0.5185 -0.0551
 4989TIP3   OH232153   1.277   0.561   7.567 -0.4626  0.4280 -0.2720
 4989TIP3    H132154   1.223   0.485   7.590  1.1413 -0.7585 -0.2157
 4989TIP3    H232155   1.338   0.528   7.501  0.5377  1.5541  0.0486
 4990TIP3   OH232156   3.735   3.790   7.017  0.5242  0.2525  0.3924
 4990TIP3    H132157   3.830   3.801   7.018  0.5264  0.4767 -0.6095
 4990TIP3    H232158   3.701   3.878   7.031  0.4489  0.0190  1.7272
 4991TIP3   OH232159   0.690   3.191   1.711  0.0003 -1.0273  0.2265
 4991TIP3    H132160   0.707   3.097   1.715  0.7498 -0.8592  2.2716
 4991TIP3    H232161   0.776   3.230   1.698 -0.1830 -0.5953  0.2982
 4992TIP3   OH232162   6.588   1.614   0.855  0.4799 -0.4245 -0.1621
 4992TIP3    H132163   6.494   1.622   0.869  0.3415  0.4426 -1.3607
 4992TIP3    H232164   6.619   1.704   0.845  1.0880 -0.7548 -1.6880
 4993TIP3   OH232165   0.033   4.262   1.812 -0.6783 -0.4157  0.1193
 4993TIP3    H132166   0.078   4.334   1.856  0.5227 -1.3288  0.4452
 4993TIP3    H232167   0.022   4.291   1.721 -0.2462  0.1860  0.2607
 4994TIP3   OH232168   2.111   2.756   7.051  0.0606 -0.2575  0.5186
 4994TIP3    H132169   2.085   2.848   7.055 -2.5392 -0.7842 -1.8062
 4994TIP3    H232170   2.116   2.729   7.143  1.0371  2.1743  1.2763
 4995TIP3   OH232171   2.674   1.575   0.901  0.0358 -0.2759 -0.6021
 4995TIP3    H132172   2.710   1.662   0.884  1.6084 -0.3762  1.8300
 4995TIP3    H232173   2.749   1.516   0.897 -0.6555 -1.2121 -0.1721
 4996TIP3   OH232174   5.122   5.066   5.895  0.1215  0.5509  0.1053
 4996TIP3    H132175   5.202   5.034   5.936  0.1911 -0.1231 -0.5386
 4996TIP3    H232176   5.132   5.161   5.894  0.9907  0.4682 -0.1118
 4997TIP3   OH232177   5.790   0.039   2.180 -0.7997 -0.1415  0.3817
 4997TIP3    H132178   5.831   0.112   2.134  0.0817 -0.1725  1.0756
 4997TIP3    H232179   5.698   0.042   2.155 -0.5347  0.4588 -0.5562
 4998TIP3   OH232180   5.968   1.133   7.050 -0.0858  0.1620 -0.4351
 4998TIP3    H132181   5.963   1.053   7.102  1.8235 -1.7220 -2.8725
 4998TIP3    H232182   6.042   1.182   7.087  0.8359 -0.8341 -0.9138
 4999TIP3   OH232183   3.268   0.286   1.249  0.1741  0.4744  0.1253
 4999TIP3    H132184   3.213   0.363   1.265  1.8597  1.6276  0.7384
 4999TIP3    H232185   3.246   0.225   1.319 -1.5402  0.1567 -0.6516
 5000TIP3   OH232186   6.136   1.826   0.184  0.3136  0.1403  0.1329
 5000TIP3    H132187   6.144   1.863   0.272  0.6030 -0.8374  0.5359
 5000TIP3    H232188   6.088   1.744   0.196 -0.4392  0.4325 -0.7520
 5001TIP3   OH232189   0.266   2.524   7.057 -0.3295 -0.1496  0.7777
 5001TIP3    H132190   0.287   2.566   7.140 -0.8261  1.1478  0.2779
 5001TIP3    H232191   0.172   2.505   7.063 -0.4752  0.3832  0.3572
 5002TIP3   OH232192   0.682   1.103   6.638 -0.2986  0.2490  0.5306
 5002TIP3    H132193   0.676   1.077   6.730 -0.9404  1.2103  0.7742
 5002TIP3    H232194   0.713   1.024   6.593  0.7149 -0.0248  1.6676
 5003TIP3   OH232195   0.269   3.880   0.245  0.0126 -0.1624 -0.2592
 5003TIP3    H132196   0.256   3.808   0.183 -1.1086  1.4810 -2.0283
 5003TIP3    H232197   0.188   3.883   0.295  0.3940 -0.6492  0.3948
 5004TIP3   OH232198   5.462   1.617   1.206 -0.0881  0.4862  0.1344
 5004TIP3    H132199   5.380   1.584   1.169 -0.8268  1.3230  0.9810
 5004TIP3    H232200   5.453   1.603   1.300 -0.8797  3.9199  0.6862
 5005TIP3   OH232201   6.586   6.530   5.849 -0.4219  0.0978  0.4104
 5005TIP3    H132202   6.500   6.563   5.822 -0.6142 -1.1792 -0.7170
 5005TIP3    H232203   6.640   6.608   5.860 -1.0819  0.8325 -1.2169
 5006TIP3   OH232204   4.415   4.266   1.429 -0.0708 -0.2065  0.6806
 5006TIP3    H132205   4.382   4.352   1.400  0.2836 -0.2459  0.1558
 5006TIP3    H232206   4.428   4.217   1.348 -1.7317 -1.3081  1.0317
 5007TIP3   OH232207   3.215   3.346   5.283  0.0784  0.0870  0.3383
 5007TIP3    H132208   3.208   3.302   5.198 -1.8442 -1.0104  1.0115
 5007TIP3    H232209   3.281   3.414   5.269 -0.5710  0.3052 -2.1884
 5008TIP3   OH232210   0.657   6.172   6.088  0.0121 -0.0925 -0.3049
 5008TIP3    H132211   0.634   6.094   6.037 -0.8856 -1.0230  1.4441
 5008TIP3    H232212   0.573   6.214   6.106  0.5205  1.5817 -1.6119
 5009TIP3   OH232213   1.441   4.327   1.173  0.8001 -0.2778  0.3270
 5009TIP3    H132214   1.398   4.410   1.155  0.1851 -0.4099  1.1715
 5009TIP3    H232215   1.398   4.293   1.251  0.8521 -1.5204 -0.1528
 5010TIP3   OH232216   3.896   6.036   5.457 -0.0729 -0.3123 -0.3275
 5010TIP3    H132217   3.807   5.999   5.459 -0.1019 -0.4408 -2.1305
 5010TIP3    H232218   3.884   6.123   5.421  0.3430  0.4242  1.2352
 5011TIP3   OH232219   5.491   0.008   2.086  0.5656 -0.0016 -0.0442
 5011TIP3    H132220   5.416  -0.036   2.045  1.7781 -0.4803 -1.9112
 5011TIP3    H232221   5.467   0.101   2.086 -0.0614 -0.1560 -0.5652
 5012TIP3   OH232222   5.765   4.529   2.176  0.0317 -0.3038  0.5317
 5012TIP3    H132223   5.776   4.619   2.144 -0.0260 -0.6608 -0.5503
 5012TIP3    H232224   5.848   4.508   2.218 -0.3187  0.6032  1.7097
 5013TIP3   OH232225   0.525   2.738   0.960  0.1715  0.1967 -0.3193
 5013TIP3    H132226   0.535   2.703   0.872  3.1783  1.1081 -0.4446
 5013TIP3    H232227   0.540   2.664   1.018  1.5316  0.2419 -0.5954
 5014TIP3   OH232228   1.878   5.257   7.143  0.1275  0.2082  0.1738
 5014TIP3    H132229   1.898   5.307   7.064  0.2940 -0.5825 -0.2895
 5014TIP3    H232230   1.942   5.186   7.143  0.3328  0.3821  1.1911
 5015TIP3   OH232231   5.149   5.103   1.204 -0.2501 -0.2838 -0.0918
 5015TIP3    H132232   5.175   5.031   1.261  0.9760 -0.1657 -0.4810
 5015TIP3    H232233   5.056   5.116   1.223 -0.6993 -2.4514 -0.5651
 5016TIP3   OH232234   3.395   3.956   0.904 -0.0480 -0.0902  0.6824
 5016TIP3    H132235   3.380   3.935   0.812 -0.9969 -0.8579  0.9952
 5016TIP3    H232236   3.481   3.919   0.924 -0.5682 -1.4271  0.5342
 5017TIP3   OH232237   2.497   1.691   0.297  0.8215 -0.2172 -0.0993
 5017TIP3    H132238   2.452   1.776   0.293  0.7657 -0.2490 -0.1370
 5017TIP3    H232239   2.437   1.633   0.343  1.2918  0.0354  0.8602
 5018TIP3   OH232240   0.189   0.482   6.270  0.2051  0.3053 -0.2304
 5018TIP3    H132241   0.141   0.418   6.218  0.4890 -1.0973  1.1415
 5018TIP3    H232242   0.242   0.530   6.207 -0.1190 -0.7290 -1.3153
 5019TIP3   OH232243   0.381   4.519   6.742  0.3246 -0.7589 -0.3735
 5019TIP3    H132244   0.426   4.551   6.664 -0.2475 -0.8379 -0.7447
 5019TIP3    H232245   0.419   4.569   6.814  0.4490 -0.2654 -0.7747
 5020TIP3   OH232246   1.639   2.255   5.656 -0.0634 -0.1963  0.0960
 5020TIP3    H132247   1.646   2.197   5.581 -0.3738 -2.8671  1.9895
 5020TIP3    H232248   1.728   2.288   5.669  0.1811 -0.4476 -0.8673
 5021TIP3   OH232249   3.115   5.366   0.392  0.5541 -0.2334 -0.0432
 5021TIP3    H132250   3.067   5.288   0.422  0.8876 -1.0026 -1.4268
 5021TIP3    H232251   3.107   5.428   0.464  2.0795 -2.2855  2.0678
 5022TIP3   OH232252   3.621   2.140   2.112  0.0636  0.4066 -0.1849
 5022TIP3    H132253   3.704   2.097   2.089 -0.4623 -0.6409 -0.1455
 5022TIP3    H232254   3.612   2.125   2.206 -1.1432 -1.2331 -0.5266
 5023TIP3   OH232255   0.465   6.263   5.812 -0.3809 -0.0287 -0.5888
 5023TIP3    H132256   0.402   6.327   5.780 -1.1141  0.8021  2.2531
 5023TIP3    H232257   0.411   6.187   5.837 -0.0019 -0.1164 -0.0348
 5024TIP3   OH232258   0.800   4.312   0.803 -0.4044  0.0026 -0.1465
 5024TIP3    H132259   0.778   4.251   0.733  0.1040  0.2067 -0.4937
 5024TIP3    H232260   0.892   4.293   0.823 -0.0616  1.0421 -0.6672
 5025TIP3   OH232261   0.634   1.512   6.419 -0.7654  0.7986 -0.0907
 5025TIP3    H132262   0.658   1.490   6.509 -1.0066  1.5207  0.1492
 5025TIP3    H232263   0.609   1.604   6.421  1.0877  1.3904 -1.2483
 5026TIP3   OH232264   6.589   3.888   6.548  0.3598  0.2629 -0.6209
 5026TIP3    H132265   6.614   3.954   6.613  0.7919 -1.5147  1.1181
 5026TIP3    H232266   6.495   3.877   6.559  0.3714  0.2386 -0.5403
 5027TIP3   OH232267   3.006   3.791   2.474  0.3027 -0.2512  0.9587
 5027TIP3    H132268   3.028   3.884   2.483 -0.9953  0.0563  1.1950
 5027TIP3    H232269   3.082   3.752   2.432  0.1211  1.3119 -0.9944
 5028TIP3   OH232270   2.304   0.064   5.827  0.2198 -0.1271  0.0834
 5028TIP3    H132271   2.302   0.009   5.906  0.7776 -0.8600 -0.3894
 5028TIP3    H232272   2.389   0.107   5.830 -0.6813  1.6804  1.0611
 5029TIP3   OH232273   2.019   5.787   6.161  0.2844  0.5525  0.1412
 5029TIP3    H132274   2.021   5.855   6.093 -3.1901 -0.2940 -1.0166
 5029TIP3    H232275   2.052   5.709   6.117  0.3447  0.5464  0.1974
 5030TIP3   OH232276   5.913   5.702   2.320  0.0066 -0.2107  0.7234
 5030TIP3    H132277   5.898   5.796   2.319  1.1114 -0.0251  0.7271
 5030TIP3    H232278   6.008   5.692   2.326  0.1003 -1.3197 -1.6381
 5031TIP3   OH232279   3.992   2.207   6.900 -0.1549  0.6087  0.4022
 5031TIP3    H132280   3.921   2.256   6.941  0.0563 -0.3399  1.9333
 5031TIP3    H232281   4.032   2.157   6.970  1.4192  0.3508 -0.6096
 5032TIP3   OH232282   0.679   1.606   1.979  0.1103  0.1886 -0.0132
 5032TIP3    H132283   0.687   1.677   2.042 -0.7237  0.5887 -0.3357
 5032TIP3    H232284   0.606   1.553   2.011 -0.8005  0.8044 -0.9954
 5033TIP3   OH232285   1.640   1.453   2.681  0.0815 -0.2911 -0.1826
 5033TIP3    H132286   1.677   1.538   2.708  3.0224 -1.7668  0.8421
 5033TIP3    H232287   1.615   1.411   2.762  2.1911 -1.8377 -0.2487
 5034TIP3   OH232288   3.626   2.344   5.815 -0.1069  0.4577 -0.3114
 5034TIP3    H132289   3.551   2.294   5.782  0.1340  1.7682 -3.1583
 5034TIP3    H232290   3.695   2.330   5.751  1.0331  1.8252  0.5356
 5035TIP3   OH232291   4.198   4.112   1.513 -0.9374  0.5951 -0.5124
 5035TIP3    H132292   4.271   4.168   1.484  0.8085  0.1840  2.6625
 5035TIP3    H232293   4.141   4.170   1.563 -1.8171  0.5044 -1.3802
 5036TIP3   OH232294   4.084   2.535   7.455 -0.2843 -0.2438 -0.1036
 5036TIP3    H132295   4.174   2.554   7.479  0.3496  0.0701 -2.4700
 5036TIP3    H232296   4.031   2.585   7.517  1.1501  0.1260  0.8720
 5037TIP3   OH232297   5.868   1.365   1.342  0.1467 -0.2208  0.7094
 5037TIP3    H132298   5.940   1.338   1.400  0.3359  1.2173  1.1756
 5037TIP3    H232299   5.893   1.451   1.309 -1.2739  0.2470  0.7490
 5038TIP3   OH232300   2.031   6.548   6.006  0.0966 -0.6382  0.1747
 5038TIP3    H132301   2.065   6.613   6.068 -0.7827 -0.2660  0.2856
 5038TIP3    H232302   2.107   6.498   5.979  0.3365 -1.8270  2.7255
 5039TIP3   OH232303   1.908   5.526   0.693  0.5472 -0.1937  0.3633
 5039TIP3    H132304   1.912   5.613   0.734  0.2076  0.1589 -0.3298
 5039TIP3    H232305   1.846   5.537   0.621  0.5593 -0.9999  0.2230
 5040TIP3   OH232306   0.923   0.279   1.313 -0.1542  0.5037 -0.0811
 5040TIP3    H132307   0.968   0.234   1.241 -0.5102  1.1517 -0.7248
 5040TIP3    H232308   0.942   0.225   1.390  0.3361 -0.1408 -0.6320
 5041TIP3   OH232309   2.074   0.471   6.791  0.8842  0.1058 -0.7182
 5041TIP3    H132310   2.139   0.402   6.803 -0.8035 -1.4257 -0.0339
 5041TIP3    H232311   2.024   0.444   6.714  0.3541  0.6851 -0.5832
 5042TIP3   OH232312   1.742   1.947   2.123  0.7358 -0.4716  0.1586
 5042TIP3    H132313   1.769   2.010   2.057  2.3067 -2.7205 -1.5015
 5042TIP3    H232314   1.723   2.000   2.201 -0.1155  2.1819 -1.7152
 5043TIP3   OH232315   6.357   2.721   6.713  0.0023  0.1229 -0.5344
 5043TIP3    H132316   6.339   2.772   6.792  1.1115  0.7334 -0.6567
 5043TIP3    H232317   6.300   2.760   6.647  0.7319  1.1234 -0.5910
 5044TIP3   OH232318   6.607   2.479   1.737 -0.7237 -0.1121  0.0459
 5044TIP3    H132319   6.673   2.410   1.740 -0.9346 -0.3217 -0.1205
 5044TIP3    H232320   6.623   2.531   1.816 -1.0513 -0.8028  0.5735
 5045TIP3   OH232321   3.408   5.879   6.529  0.1973  0.4826  0.4578
 5045TIP3    H132322   3.361   5.813   6.580  1.3293  1.2916  2.6945
 5045TIP3    H232323   3.416   5.841   6.442 -1.4972 -1.1573  0.9545
 5046TIP3   OH232324   1.778   0.347   0.823 -0.6348 -0.2857  0.3359
 5046TIP3    H132325   1.754   0.425   0.872 -1.5914 -0.3687  0.0153
 5046TIP3    H232326   1.703   0.331   0.765  0.3048 -0.3949 -0.8858
 5047TIP3   OH232327   1.542   5.323   1.223 -0.3591  0.1439  0.5514
 5047TIP3    H132328   1.446   5.331   1.228 -0.4118 -1.1280  2.5665
 5047TIP3    H232329   1.572   5.336   1.313  1.1159 -2.0928  0.4578
 5048TIP3   OH232330   3.852   2.572   1.382 -0.3909  0.0178  0.0850
 5048TIP3    H132331   3.861   2.505   1.314 -0.5063 -0.7395  0.7986
 5048TIP3    H232332   3.758   2.577   1.399 -0.2033 -2.2085  2.4743
 5049TIP3   OH232333   4.553   5.104   6.960 -0.1486  0.0493 -0.2869
 5049TIP3    H132334   4.547   5.012   6.984  0.3593 -0.1705 -0.9750
 5049TIP3    H232335   4.597   5.104   6.875 -0.7395  0.8816 -0.6063
 5050TIP3   OH232336   4.277   1.984   0.419 -0.8135 -0.1686 -0.5081
 5050TIP3    H132337   4.322   2.057   0.460 -0.0219 -1.1900  0.5142
 5050TIP3    H232338   4.212   1.956   0.483  0.7855 -2.1122  0.4070
 5051TIP3   OH232339   4.073   1.318   5.873 -0.5407 -0.5386  0.2905
 5051TIP3    H132340   4.162   1.325   5.840 -1.6343 -0.6370 -3.0853
 5051TIP3    H232341   4.052   1.225   5.867 -0.9382 -0.4942  0.8898
 5052TIP3   OH232342   4.558   0.555   0.076  0.3175  0.1261  0.4497
 5052TIP3    H132343   4.520   0.633   0.116  1.0203  1.5639 -1.5620
 5052TIP3    H232344   4.650   0.558   0.102  0.1356 -0.6596  1.2436
 5053TIP3   OH232345   3.146   5.291   1.336  0.5155 -0.2482 -0.5349
 5053TIP3    H132346   3.114   5.381   1.345  1.9401  0.1117  1.5762
 5053TIP3    H232347   3.092   5.240   1.397  0.7482 -0.5379 -0.5674
 5054TIP3   OH232348   5.402   5.631   5.792  0.0715  0.3401 -0.6637
 5054TIP3    H132349   5.457   5.706   5.817  0.8053  0.8288 -3.4053
 5054TIP3    H232350   5.449   5.555   5.825 -0.6749  0.9866  2.1716
 5055TIP3   OH232351   4.369   5.098   0.425  0.4486  0.5205 -0.1550
 5055TIP3    H132352   4.352   5.187   0.393 -0.2740  1.0360  1.5427
 5055TIP3    H232353   4.450   5.106   0.476  0.6144  0.1169 -0.3557
 5056TIP3   OH232354   0.464   1.711   6.633 -0.0081 -0.2682 -0.1422
 5056TIP3    H132355   0.549   1.741   6.600 -0.1681 -0.9135 -1.1930
 5056TIP3    H232356   0.442   1.772   6.703  0.3847  1.1449 -1.1989
 5057TIP3   OH232357   3.636   2.463   0.337 -0.7165 -0.4621 -0.1217
 5057TIP3    H132358   3.727   2.446   0.310 -0.5806  0.4263 -0.2478
 5057TIP3    H232359   3.589   2.383   0.314 -0.1590 -0.5580 -0.9740
 5058TIP3   OH232360   1.897   0.105   5.849  0.1188 -1.1067  0.4389
 5058TIP3    H132361   1.909   0.170   5.919  0.0074 -0.8997  0.2680
 5058TIP3    H232362   1.949   0.030   5.876 -0.0318 -1.0781  0.8117
 5059TIP3   OH232363   1.539   4.682   0.926  0.1038  0.0643  0.0854
 5059TIP3    H132364   1.564   4.621   0.857  2.2050 -0.5768  1.3221
 5059TIP3    H232365   1.570   4.767   0.895 -0.2947  0.0416 -0.3904
 5060TIP3   OH232366   5.623   1.175   7.316  0.0187  0.4098  0.4191
 5060TIP3    H132367   5.653   1.132   7.396  0.1368 -0.7228 -0.2144
 5060TIP3    H232368   5.590   1.104   7.261 -2.2899  1.4130  0.3869
 5061TIP3   OH232369   2.096   2.784   0.566 -0.2495  0.2461  0.0171
 5061TIP3    H132370   2.095   2.870   0.609 -2.3677  0.2133  0.1337
 5061TIP3    H232371   2.073   2.722   0.635 -1.9280 -0.0154 -0.7391
 5062TIP3   OH232372   3.775   4.114   1.311 -0.3367 -0.4573  0.0931
 5062TIP3    H132373   3.800   4.199   1.348  0.8743 -0.4704 -0.6275
 5062TIP3    H232374   3.717   4.135   1.238  0.1332 -0.2153 -0.2201
 5063TIP3   OH232375   1.408   3.661   0.515 -0.2521 -0.3572 -0.0580
 5063TIP3    H132376   1.371   3.580   0.551  1.3242 -0.2534  2.0335
 5063TIP3    H232377   1.463   3.632   0.442 -1.3860 -0.9025 -0.7248
 5064TIP3   OH232378   6.307   0.998   2.083  0.0122  0.0135  0.2644
 5064TIP3    H132379   6.385   0.965   2.127 -1.4986 -1.7656  1.7580
 5064TIP3    H232380   6.282   1.075   2.134  0.0869 -0.1411  0.5378
 5065TIP3   OH232381   5.270   1.252   6.884  0.2647 -0.2542 -0.5285
 5065TIP3    H132382   5.204   1.222   6.946  1.3424  1.8879  1.8320
 5065TIP3    H232383   5.245   1.342   6.862  1.8762  0.2896 -0.2803
 5066TIP3   OH232384   2.873   0.404   1.214 -0.0092 -0.0795 -0.3199
 5066TIP3    H132385   2.887   0.377   1.305  0.2485 -0.2673 -0.4152
 5066TIP3    H232386   2.793   0.359   1.188  0.3711 -0.6853 -0.4492
 5067TIP3   OH232387   5.003   5.123   1.918 -0.3417 -0.0734 -0.1752
 5067TIP3    H132388   4.986   5.034   1.949 -0.1944 -0.1723 -0.3761
 5067TIP3    H232389   5.095   5.122   1.891 -0.0942  0.3689  0.6158
 5068TIP3   OH232390   2.991   3.780   1.702 -0.2187  0.1598 -0.2613
 5068TIP3    H132391   2.927   3.812   1.639 -0.4658 -1.1257 -0.7050
 5068TIP3    H232392   2.989   3.843   1.774 -0.9555  0.8872 -0.9098
 5069TIP3   OH232393   0.562   5.426   7.620  0.1548 -0.2035 -0.7140
 5069TIP3    H132394   0.617   5.441   7.543 -0.8687 -2.1930 -1.9260
 5069TIP3    H232395   0.607   5.356   7.668 -0.0821 -0.1657 -0.4363
 5070TIP3   OH232396   1.900   2.201   5.905  0.2136  0.0202 -0.7635
 5070TIP3    H132397   1.809   2.219   5.928  0.6221 -0.3664  1.2990
 5070TIP3    H232398   1.908   2.231   5.814 -1.2872  2.4936 -0.1754
 5071TIP3   OH232399   5.039   2.726   0.845 -0.2750 -0.1507  0.6450
 5071TIP3    H132400   4.993   2.654   0.803 -0.1390 -0.4914  1.0678
 5071TIP3    H232401   5.047   2.699   0.936  0.4741  0.0474  0.6435
 5072TIP3   OH232402   0.830   3.006   2.643 -0.4579 -0.0107  0.4258
 5072TIP3    H132403   0.735   3.018   2.644 -0.2087  3.1983 -1.1803
 5072TIP3    H232404   0.864   3.085   2.684  1.5413 -0.0673 -0.9961
 5073TIP3   OH232405   3.762   6.169   1.001  0.4292  0.3296  0.0977
 5073TIP3    H132406   3.760   6.197   1.092  2.0688 -3.6654  1.6209
 5073TIP3    H232407   3.671   6.146   0.981  0.2006  0.3278  1.1010
 5074TIP3   OH232408   6.420   3.741   1.453  0.2044  0.4769  0.1899
 5074TIP3    H132409   6.468   3.803   1.398  0.1931 -2.4178 -3.5808
 5074TIP3    H232410   6.332   3.740   1.416  0.1801 -1.5738  0.1816
 5075TIP3   OH232411   3.270   6.593   0.846 -0.2018  0.3871 -0.1892
 5075TIP3    H132412   3.176   6.579   0.859 -0.2403 -0.8883 -1.4694
 5075TIP3    H232413   3.278   6.612   0.752  0.8885 -0.3894 -0.2676
 5076TIP3   OH232414   2.650   0.852   7.739 -0.3414 -0.0123  0.1994
 5076TIP3    H132415   2.563   0.812   7.732 -0.9625  0.9304  2.0534
 5076TIP3    H232416   2.710   0.778   7.734 -1.3440 -0.9077  0.9472
 5077TIP3   OH232417   5.149   3.177   7.412  0.1151  0.1112  0.3264
 5077TIP3    H132418   5.129   3.204   7.323 -0.5755  1.6029  0.8967
 5077TIP3    H232419   5.175   3.085   7.404 -2.2760 -0.5438 -1.1206
 5078TIP3   OH232420   5.596   5.491   0.896 -0.1044 -0.2144 -0.0785
 5078TIP3    H132421   5.594   5.556   0.826 -0.3423 -0.8678 -0.6887
 5078TIP3    H232422   5.687   5.462   0.899  0.1492  0.5920  0.6324
 5079TIP3   OH232423   0.192   4.922   1.675  0.4659 -0.2599 -0.5207
 5079TIP3    H132424   0.220   5.011   1.695  1.5115 -0.2389 -1.9195
 5079TIP3    H232425   0.135   4.897   1.748 -0.6790  1.8992 -0.6173
 5080TIP3   OH232426   5.473   4.562   0.228  0.0119 -0.6587 -0.2542
 5080TIP3    H132427   5.553   4.576   0.280  0.4870  0.2174 -1.1846
 5080TIP3    H232428   5.429   4.489   0.272  0.4986 -0.0988  1.2587
 5081TIP3   OH232429   0.278   0.472   2.233  0.3687 -0.1898 -0.3214
 5081TIP3    H132430   0.312   0.417   2.304  2.1103  0.6687 -0.4522
 5081TIP3    H232431   0.228   0.411   2.178 -0.5045 -0.9880  1.2738
 5082TIP3   OH232432   5.878   0.607   1.462 -0.4628  0.2009 -0.6647
 5082TIP3    H132433   5.942   0.635   1.396 -0.3827  1.3273 -0.1240
 5082TIP3    H232434   5.923   0.617   1.545 -0.1977 -2.1845 -0.4355
 5083TIP3   OH232435   2.011   3.071   1.552  0.0863  0.0893  0.3425
 5083TIP3    H132436   2.031   3.130   1.480 -0.9982 -0.6054 -0.5554
 5083TIP3    H232437   1.988   3.128   1.625  2.4035  0.8420  0.5602
 5084TIP3   OH232438   2.967   0.267   0.710  0.4152  0.1366 -0.0529
 5084TIP3    H132439   2.943   0.312   0.791  0.9705 -0.9952  0.7563
 5084TIP3    H232440   3.023   0.330   0.663  0.1436  0.7729  0.4537
 5085TIP3   OH232441   0.665   0.690   0.523  0.6689 -0.5524 -0.1512
 5085TIP3    H132442   0.582   0.659   0.560 -1.1180  0.3359 -3.0493
 5085TIP3    H232443   0.689   0.622   0.459  1.3808 -0.1048 -0.3647
 5086TIP3   OH232444   1.857   1.413   7.675 -0.0633  0.1467 -0.2494
 5086TIP3    H132445   1.763   1.419   7.662 -0.1969 -0.3576  0.4301
 5086TIP3    H232446   1.868   1.395   7.769  0.5399 -3.2807 -0.8520
 5087TIP3   OH232447   2.194   3.043   0.263 -0.0340  0.0157  0.6264
 5087TIP3    H132448   2.218   3.062   0.354  0.8582 -2.0147  0.8818
 5087TIP3    H232449   2.253   2.972   0.237  1.1941  1.9008 -2.2555
 5088TIP3   OH232450   5.229   0.658   6.565 -0.0777 -0.4759 -0.2985
 5088TIP3    H132451   5.293   0.588   6.571  0.3208 -0.0069  1.3083
 5088TIP3    H232452   5.149   0.615   6.533  0.4446 -1.4501 -0.3089
 5089TIP3   OH232453   6.409   3.128   1.833  0.1255 -0.2319 -0.2962
 5089TIP3    H132454   6.425   3.104   1.742 -2.4184  0.8973 -1.1140
 5089TIP3    H232455   6.329   3.081   1.857  0.2892  0.1500  1.0914
 5090TIP3   OH232456   0.923   3.547   0.807 -0.0245 -0.1222 -0.0269
 5090TIP3    H132457   0.940   3.633   0.770 -1.1449  0.2919  0.3740
 5090TIP3    H232458   0.869   3.502   0.742 -0.2546 -0.1581  0.1850
 5091TIP3   OH232459   6.027   1.066   7.371 -0.0329  0.6573  0.2904
 5091TIP3    H132460   5.992   0.994   7.423  0.8068  1.3448  1.8801
 5091TIP3    H232461   5.972   1.141   7.393 -0.7341  0.5968 -1.1498
 5092TIP3   OH232462   2.756   1.810   1.389  0.2242  0.2171 -0.1279
 5092TIP3    H132463   2.690   1.799   1.320 -0.4251  1.4027  0.2661
 5092TIP3    H232464   2.827   1.751   1.364 -0.3256  0.0517 -1.3994
 5093TIP3   OH232465   3.793   5.034   0.839 -0.6612  0.0819  0.1734
 5093TIP3    H132466   3.702   5.015   0.862 -1.1663  1.7939 -0.2080
 5093TIP3    H232467   3.845   4.980   0.899 -1.9148 -1.1906  0.1618
 5094TIP3   OH232468   2.125   4.528   6.524 -0.9355 -0.2294 -0.1106
 5094TIP3    H132469   2.111   4.560   6.614  2.5299  1.1618  0.0634
 5094TIP3    H232470   2.136   4.608   6.472  1.9170 -1.0041 -0.8103
 5095TIP3   OH232471   6.421   6.338   0.505 -0.2481  0.5475 -0.8094
 5095TIP3    H132472   6.351   6.316   0.443 -0.7752 -1.0677  0.2983
 5095TIP3    H232473   6.430   6.260   0.559 -0.4725  2.1976  1.7738
 5096TIP3   OH232474   5.839   3.029   0.338  0.3081 -0.1109 -0.3923
 5096TIP3    H132475   5.760   3.056   0.292  0.7383  1.6573 -0.1585
 5096TIP3    H232476   5.911   3.062   0.284  0.8256  1.4309  1.1298
 5097TIP3   OH232477   0.569   2.481   0.414  0.1909  0.5870  0.6079
 5097TIP3    H132478   0.575   2.534   0.335 -1.4306  0.3964  0.3161
 5097TIP3    H232479   0.479   2.493   0.444  0.3135 -0.5989  1.5195
 5098TIP3   OH232480   0.183   5.093   0.754  0.2442 -0.0083  0.3120
 5098TIP3    H132481   0.204   5.128   0.840  0.5485  1.8085 -0.4408
 5098TIP3    H232482   0.105   5.141   0.727  1.0276  0.5868 -1.0182
 5099TIP3   OH232483   2.765   4.439   7.096 -0.0635 -0.2792  0.4682
 5099TIP3    H132484   2.825   4.415   7.166  0.2630  0.9286  0.6300
 5099TIP3    H232485   2.814   4.503   7.043 -0.3476 -1.0747 -0.7957
 5100TIP3   OH232486   0.328   0.793   0.436  0.6982 -0.6310  0.2676
 5100TIP3    H132487   0.276   0.836   0.504 -1.0808 -1.9019 -0.2322
 5100TIP3    H232488   0.408   0.846   0.430  0.1848  0.4514  2.1840
 5101TIP3   OH232489   0.954   4.200   6.962  0.2134 -0.4466 -0.4101
 5101TIP3    H132490   0.859   4.191   6.971 -0.1443  1.8474 -1.1543
 5101TIP3    H232491   0.966   4.237   6.874  1.9029 -1.7012 -0.7558
 5102TIP3   OH232492   3.714   3.117   0.426 -0.1213  0.0413  0.4816
 5102TIP3    H132493   3.656   3.180   0.383 -0.9104 -0.4167  0.8585
 5102TIP3    H232494   3.736   3.159   0.510 -0.0818  0.1215  0.4315
 5103TIP3   OH232495   1.356   0.759   2.122  0.6199 -0.0765 -0.2943
 5103TIP3    H132496   1.385   0.807   2.200  2.0751 -3.0838  1.1503
 5103TIP3    H232497   1.261   0.755   2.131  0.7249  0.0561  1.0853
 5104TIP3   OH232498   2.537   5.945   0.701  0.2683 -0.0587  0.1470
 5104TIP3    H132499   2.538   6.027   0.653 -2.8952 -0.3814 -0.6978
 5104TIP3    H232500   2.619   5.902   0.678  0.6370  1.5550 -1.7748
 5105TIP3   OH232501   6.542   0.379   7.658  0.1050  0.8227 -0.0519
 5105TIP3    H132502   6.574   0.326   7.731 -2.4416  0.7089  1.0926
 5105TIP3    H232503   6.568   0.469   7.680 -2.0869  1.0703  2.0234
 5106TIP3   OH232504   6.239   1.752   7.478 -0.0122  0.0607 -0.4992
 5106TIP3    H132505   6.280   1.794   7.402 -0.9072  1.4613 -0.2365
 5106TIP3    H232506   6.145   1.757   7.461 -0.1788 -0.9162  0.0480
 5107TIP3   OH232507   4.631   5.201   0.529 -0.0269 -0.2190  0.1637
 5107TIP3    H132508   4.671   5.278   0.489 -0.7783  0.1434  0.0853
 5107TIP3    H232509   4.650   5.129   0.469 -0.6794  0.2174 -0.5843
 5108TIP3   OH232510   1.188   6.161   5.892  0.4848  0.0914  0.3255
 5108TIP3    H132511   1.126   6.176   5.963 -0.1900 -0.5094 -0.1099
 5108TIP3    H232512   1.188   6.066   5.880 -0.2435  0.2510 -1.1662
 5109TIP3   OH232513   3.885   2.700   6.619  0.5864 -0.5576  0.4728
 5109TIP3    H132514   3.969   2.666   6.650  1.4081  1.3221  0.4639
 5109TIP3    H232515   3.858   2.640   6.550  0.6637 -2.6076  2.0983
 5110TIP3   OH232516   2.818   3.516   1.343  0.1639  0.1892  0.6993
 5110TIP3    H132517   2.859   3.552   1.422 -0.1096  0.8051  0.5647
 5110TIP3    H232518   2.725   3.514   1.364  0.2203 -0.8981  0.8804
 5111TIP3   OH232519   0.166   3.372   7.582 -0.3227 -0.0695 -0.3042
 5111TIP3    H132520   0.088   3.320   7.565  0.8147 -1.7927 -0.4339
 5111TIP3    H232521   0.184   3.359   7.675  0.3536 -0.4651 -0.4861
 5112TIP3   OH232522   1.070   3.280   7.703 -0.2429  0.3259  0.2768
 5112TIP3    H132523   1.072   3.333   7.624  2.1251  1.2852  0.8907
 5112TIP3    H232524   1.119   3.201   7.681 -1.0257 -0.1815  0.3130
 5113TIP3   OH232525   2.092   2.046   1.245  0.1481 -0.6984 -0.1623
 5113TIP3    H132526   2.179   2.041   1.285  0.8586  0.1264 -1.5349
 5113TIP3    H232527   2.032   2.049   1.320  1.3970  0.2847  0.8510
 5114TIP3   OH232528   4.296   3.162   6.101  0.2226 -0.2052  0.1576
 5114TIP3    H132529   4.391   3.165   6.117  0.3353 -1.4512 -0.1634
 5114TIP3    H232530   4.288   3.178   6.007  0.1441 -0.4818  0.1174
 5115TIP3   OH232531   2.717   3.041   1.662  0.8232  0.5435 -0.3260
 5115TIP3    H132532   2.737   3.128   1.697 -0.6066  0.8625 -0.2451
 5115TIP3    H232533   2.652   3.058   1.593  0.4625 -0.4736 -0.2472
 5116TIP3   OH232534   4.643   0.612   6.758 -0.4622  0.3433  0.4361
 5116TIP3    H132535   4.731   0.631   6.790  0.7525  0.7994 -2.8173
 5116TIP3    H232536   4.655   0.547   6.689 -2.8178 -0.3173  0.5404
 5117TIP3   OH232537   3.312   1.875   0.758 -0.2849 -0.6073 -0.3645
 5117TIP3    H132538   3.331   1.950   0.702 -0.9345  0.0757  0.3057
 5117TIP3    H232539   3.392   1.863   0.809 -0.9764  1.2394  1.2977
 5118TIP3   OH232540   3.946   3.592   6.748 -0.0105 -0.0964 -0.0842
 5118TIP3    H132541   3.942   3.584   6.652  1.1429 -2.0024 -0.0244
 5118TIP3    H232542   3.856   3.610   6.774 -0.8454 -2.0495 -1.3747
 5119TIP3   OH232543   1.344   3.745   6.869  0.3337 -0.6971  0.7432
 5119TIP3    H132544   1.412   3.770   6.932  2.4157 -1.6308 -1.0011
 5119TIP3    H232545   1.344   3.816   6.805 -0.6565 -0.5182  0.9272
 5120TIP3   OH232546   2.698   2.264   1.702  0.9425  0.2837 -0.0624
 5120TIP3    H132547   2.716   2.203   1.631  1.1583  0.5439 -0.2328
 5120TIP3    H232548   2.777   2.263   1.755  0.4959 -0.4954  0.6124
 5121TIP3   OH232549   4.398   6.080   1.739  0.3811 -0.5904  0.5798
 5121TIP3    H132550   4.477   6.123   1.774  0.7447 -0.9844  0.2546
 5121TIP3    H232551   4.371   6.136   1.667  0.3588 -0.4511  0.6950
 5122TIP3   OH232552   5.183   2.660   1.593 -0.3984  0.1788  0.8191
 5122TIP3    H132553   5.124   2.736   1.588  0.1664  0.8352  3.0199
 5122TIP3    H232554   5.172   2.627   1.682 -1.5220 -3.1390 -0.3736
 5123TIP3   OH232555   3.457   5.550   7.244 -0.2874 -0.1355 -0.1271
 5123TIP3    H132556   3.417   5.536   7.330  2.5509 -2.9599  0.9476
 5123TIP3    H232557   3.517   5.623   7.258 -0.3879 -0.0942  0.0975
 5124TIP3   OH232558   1.172   0.126   6.741 -0.1424  0.3756  0.0828
 5124TIP3    H132559   1.216   0.070   6.806  0.4891 -1.0477 -1.5119
 5124TIP3    H232560   1.084   0.090   6.734 -0.1165  0.3449 -0.0743
 5125TIP3   OH232561   2.120   0.678   0.734  0.2347  0.1898 -0.2049
 5125TIP3    H132562   2.053   0.661   0.801  1.0134 -1.0914  0.2878
 5125TIP3    H232563   2.103   0.614   0.666  1.6057 -0.9470  0.4504
 5126TIP3   OH232564   1.899   3.169   7.591  0.1155  1.1082  0.1552
 5126TIP3    H132565   1.838   3.151   7.519 -0.6485  3.1590  0.2424
 5126TIP3    H232566   1.884   3.098   7.653 -1.1526  0.7986 -0.4812
 5127TIP3   OH232567   2.299   0.030   6.448  0.3478  0.1590 -0.3148
 5127TIP3    H132568   2.249   0.112   6.440 -0.2164 -0.3322 -2.6160
 5127TIP3    H232569   2.235  -0.034   6.479  0.3419  0.1989 -0.2442
 5128TIP3   OH232570   5.022   5.490   0.176 -0.3649 -0.4136  0.1647
 5128TIP3    H132571   5.058   5.544   0.246  0.2612  0.1004 -0.5316
 5128TIP3    H232572   5.051   5.533   0.096 -0.8179 -1.1554 -0.4104
 5129TIP3   OH232573   1.030   0.374   7.582 -0.1559  0.4210 -0.2781
 5129TIP3    H132574   1.020   0.280   7.595  0.1639  0.2121 -1.4234
 5129TIP3    H232575   1.025   0.411   7.670 -2.9657 -0.3748 -0.0047
 5130TIP3   OH232576   3.875   2.230   6.472 -0.7425 -0.5985 -0.1211
 5130TIP3    H132577   3.788   2.191   6.473 -0.9223 -0.2225 -0.7847
 5130TIP3    H232578   3.929   2.165   6.425 -0.7402 -0.6728 -0.0163
 5131TIP3   OH232579   0.579   0.612   0.166  0.3466 -0.1226  0.7740
 5131TIP3    H132580   0.634   0.554   0.219 -0.4913  1.1261  3.1675
 5131TIP3    H232581   0.641   0.655   0.107  1.5760 -0.5998  1.6499
 5132TIP3   OH232582   5.706   2.022   7.502  0.0266 -0.0003 -0.1078
 5132TIP3    H132583   5.747   2.105   7.524  0.5299 -0.8560  2.5430
 5132TIP3    H232584   5.626   2.020   7.555 -1.4833 -0.0659 -2.2457
 5133TIP3   OH232585   6.443   1.038   0.869  0.2204  0.1666  0.2997
 5133TIP3    H132586   6.430   1.012   0.961 -0.1646  0.3706  0.3051
 5133TIP3    H232587   6.379   1.108   0.855 -0.5175 -0.6388 -0.4501
 5134TIP3   OH232588   2.566   0.702   5.582 -0.3292  0.0050  0.1118
 5134TIP3    H132589   2.485   0.737   5.544 -0.2843 -0.5418 -0.5130
 5134TIP3    H232590   2.550   0.607   5.589  0.3541 -0.1530 -0.3064
 5135TIP3   OH232591   5.427   3.905   2.357 -0.2843 -0.2545 -0.3436
 5135TIP3    H132592   5.469   3.927   2.440  0.5054 -1.4912 -0.3870
 5135TIP3    H232593   5.443   3.811   2.346 -0.3957 -0.1203 -1.8723
 5136TIP3   OH232594   4.084   4.750   5.755 -0.4729  0.2572 -0.3927
 5136TIP3    H132595   4.095   4.721   5.665 -0.8270  1.3666 -0.8196
 5136TIP3    H232596   4.094   4.845   5.750 -1.4862  0.4329  0.5716
 5137TIP3   OH232597   4.378   1.902   6.776 -0.0258  0.1741 -0.0837
 5137TIP3    H132598   4.284   1.889   6.772  0.0159 -0.7136  1.0831
 5137TIP3    H232599   4.391   1.996   6.760 -1.1210  0.3475  0.0046
 5138TIP3   OH232600   0.603   1.050   1.423  0.1854  0.1361  0.5036
 5138TIP3    H132601   0.587   1.144   1.436 -0.3334 -0.0214  1.0538
 5138TIP3    H232602   0.553   1.027   1.345  0.1020  0.2631  0.5203
 5139TIP3   OH232603   2.899   3.086   0.459 -0.1463 -0.1695 -0.6396
 5139TIP3    H132604   2.860   3.171   0.478 -0.5078 -0.4512 -0.0790
 5139TIP3    H232605   2.824   3.026   0.454  0.0359 -0.3238 -1.8139
 5140TIP3   OH232606   0.115   0.128   6.510  0.1079 -0.1556 -0.3164
 5140TIP3    H132607   0.164   0.188   6.454  1.6945 -0.8628  0.2617
 5140TIP3    H232608   0.150   0.042   6.490 -2.7862 -1.1303 -1.8285
 5141TIP3   OH232609   6.030   1.916   7.702 -0.1374  0.3149 -0.0682
 5141TIP3    H132610   6.059   1.846   7.643 -0.8180  0.5816 -0.7334
 5141TIP3    H232611   6.058   1.887   7.789  3.5337  1.2480 -0.7549
 5142TIP3   OH232612   1.277   6.374   1.389  0.5725 -0.2334  0.1771
 5142TIP3    H132613   1.206   6.413   1.337  0.2278  0.6457  1.2559
 5142TIP3    H232614   1.272   6.420   1.473  2.8362  0.3034  0.0785
 5143TIP3   OH232615   2.937   4.637   0.903 -0.4994  0.2597  0.2743
 5143TIP3    H132616   2.961   4.555   0.859  0.2449 -1.1922  3.1392
 5143TIP3    H232617   2.990   4.703   0.859  0.7113 -1.1966 -0.5741
 5144TIP3   OH232618   3.001   1.612   2.187 -0.3045  0.0784 -0.4730
 5144TIP3    H132619   3.020   1.705   2.197 -0.4128 -0.0281  0.9344
 5144TIP3    H232620   2.937   1.609   2.116 -1.2977  1.2182  0.3275
 5145TIP3   OH232621   5.634   3.866   6.728  0.0549 -0.2202  0.0929
 5145TIP3    H132622   5.564   3.848   6.790  0.3329 -0.2076  0.4135
 5145TIP3    H232623   5.616   3.808   6.654 -1.1013  0.7812 -0.4573
 5146TIP3   OH232624   2.993   2.241   6.777  0.0258  0.4597  0.1856
 5146TIP3    H132625   3.074   2.275   6.739  0.8894 -2.3939 -0.8257
 5146TIP3    H232626   2.959   2.182   6.710 -2.5819  1.0848  0.8740
 5147TIP3   OH232627   2.483   2.172   7.594 -0.9830  0.0627  0.5497
 5147TIP3    H132628   2.436   2.220   7.526 -1.8057 -1.1809  0.2085
 5147TIP3    H232629   2.556   2.229   7.618 -1.2369  0.9440 -0.6926
 5148TIP3   OH232630   5.341   5.223   0.616  0.2916  0.0756 -0.0342
 5148TIP3    H132631   5.393   5.144   0.600  0.0161 -0.1634  0.2318
 5148TIP3    H232632   5.376   5.259   0.697  0.8731  0.6116 -0.5104
 5149TIP3   OH232633   0.763   1.578   0.468  0.0406 -0.3450  0.3771
 5149TIP3    H132634   0.838   1.637   0.461 -0.6413  0.9295  2.7158
 5149TIP3    H232635   0.798   1.499   0.509  0.7117 -1.1369 -1.6262
 5150TIP3   OH232636   4.145   0.757   6.925 -0.0825 -0.0164  0.2939
 5150TIP3    H132637   4.103   0.692   6.980 -1.2169  1.2575  0.9888
 5150TIP3    H232638   4.215   0.794   6.979  0.9796 -1.0636 -0.3226
 5151TIP3   OH232639   4.838   0.191   7.607  0.2530 -0.2526 -0.1482
 5151TIP3    H132640   4.836   0.246   7.685  0.8087  0.6579 -0.7482
 5151TIP3    H232641   4.806   0.249   7.537  0.8381 -0.6943 -0.7931
 5152TIP3   OH232642   2.023   4.246   6.062  0.4782  0.1018 -0.2891
 5152TIP3    H132643   2.031   4.311   5.992 -0.4872  1.0147  0.4102
 5152TIP3    H232644   2.043   4.162   6.019  0.8464  0.7458 -1.4271
 5153TIP3   OH232645   3.355   5.624   0.404 -0.1454 -0.0461  0.4812
 5153TIP3    H132646   3.374   5.615   0.310 -1.2953 -0.2858  0.2579
 5153TIP3    H232647   3.260   5.619   0.410 -0.2150  1.7464  1.4904
 5154TIP3   OH232648   0.024   0.965   6.614  0.2046 -0.2956 -0.0819
 5154TIP3    H132649   0.076   1.045   6.617  1.6653 -1.0227 -2.6909
 5154TIP3    H232650  -0.023   0.969   6.531 -2.3344 -0.6895  1.2302
 5155TIP3   OH232651   2.456   3.930   0.045 -0.1803  0.0770  0.5133
 5155TIP3    H132652   2.540   3.975   0.046  0.6703 -1.3927 -0.2598
 5155TIP3    H232653   2.401   3.981  -0.014 -0.0360  1.3664  1.4637
 5156TIP3   OH232654   5.185   5.612   1.139 -0.3025  0.3254  0.2233
 5156TIP3    H132655   5.143   5.556   1.073 -0.5034 -0.9836  1.4094
 5156TIP3    H232656   5.278   5.592   1.131  0.1744  2.8312 -2.0378
 5157TIP3   OH232657   0.794   1.595   7.534 -0.4798  0.6867  0.0818
 5157TIP3    H132658   0.832   1.521   7.488 -1.0575 -0.6416  1.6540
 5157TIP3    H232659   0.860   1.621   7.598 -0.9280  0.4254  0.6645
 5158TIP3   OH232660   1.528   0.666   7.747  0.1518  0.1878 -0.1144
 5158TIP3    H132661   1.475   0.643   7.670  1.6942  0.9644 -1.4845
 5158TIP3    H232662   1.537   0.761   7.742  0.5938  0.2038  0.8167
 5159TIP3   OH232663   3.273   5.945   0.379  0.7864 -0.0648  0.2881
 5159TIP3    H132664   3.234   5.934   0.465  0.8434  0.9034  0.4435
 5159TIP3    H232665   3.210   5.904   0.319  1.0069 -1.2327  0.8227
 5160TIP3   OH232666   1.953   2.144   6.176  0.2881 -0.5410 -0.1290
 5160TIP3    H132667   1.948   2.191   6.093  1.1882  0.4147  0.3296
 5160TIP3    H232668   1.978   2.211   6.240 -1.4495 -1.0311  1.1351
 5161TIP3   OH232669   5.594   1.290   0.606  0.3039 -0.4331  0.3021
 5161TIP3    H132670   5.517   1.289   0.549  0.0090  2.9421  0.4680
 5161TIP3    H232671   5.654   1.228   0.565 -1.1153 -0.4992 -1.8679
 5162TIP3   OH232672   0.179   5.229   7.498 -0.3089  0.6775 -0.7211
 5162TIP3    H132673   0.221   5.285   7.563 -0.7164 -0.4516  0.5740
 5162TIP3    H232674   0.228   5.147   7.502 -2.3671 -0.5675  0.5938
 5163TIP3   OH232675   2.685   1.847   1.762  0.8998  0.5041 -0.1524
 5163TIP3    H132676   2.632   1.787   1.815  1.5707  0.3254  0.3295
 5163TIP3    H232677   2.636   1.929   1.762 -0.0692 -0.0467 -0.8816
 5164TIP3   OH232678   2.803   3.259   0.869  0.0249 -0.0549 -0.1053
 5164TIP3    H132679   2.727   3.263   0.927 -1.1994  1.8878 -1.7020
 5164TIP3    H232680   2.875   3.292   0.923 -0.8394  0.6716  0.6494
 5165TIP3   OH232681   3.093   0.675   6.826 -0.2360 -0.4314 -0.7776
 5165TIP3    H132682   3.121   0.659   6.916 -2.2239 -1.0613 -0.2124
 5165TIP3    H232683   2.999   0.653   6.826 -1.0952  2.6401 -2.1838
 5166TIP3   OH232684   5.378   2.902   6.640 -0.0935  0.4034 -0.0722
 5166TIP3    H132685   5.392   2.961   6.714  1.1023  1.0541 -0.7865
 5166TIP3    H232686   5.395   2.815   6.676  1.5938  0.8066  0.1861
 5167TIP3   OH232687   6.188   2.708   2.243  0.2235 -0.1232 -0.4184
 5167TIP3    H132688   6.144   2.640   2.192 -0.3342 -0.5625  0.6168
 5167TIP3    H232689   6.149   2.702   2.330 -0.9992  2.6291 -0.7009
 5168TIP3   OH232690   3.305   2.196   1.435  0.3743  0.1018 -0.2464
 5168TIP3    H132691   3.301   2.188   1.530 -0.8714 -0.0689 -0.2928
 5168TIP3    H232692   3.392   2.229   1.417  0.4466  0.6297  0.9926
 5169TIP3   OH232693   4.295   3.862   6.313  0.5442  0.3079  0.4498
 5169TIP3    H132694   4.265   3.826   6.230 -0.2748  1.4201  0.2324
 5169TIP3    H232695   4.357   3.798   6.347  0.3840 -0.4745 -0.6991
 5170TIP3   OH232696   3.537   0.245   0.902  0.0067 -0.2967  0.4767
 5170TIP3    H132697   3.596   0.201   0.963 -0.9154 -2.3071 -0.0178
 5170TIP3    H232698   3.511   0.178   0.839 -0.4284  1.2917 -1.1391
 5171TIP3   OH232699   2.367   3.810   6.996  0.2719  0.4119 -0.1234
 5171TIP3    H132700   2.441   3.779   7.047  0.8821  0.7417 -0.7848
 5171TIP3    H232701   2.367   3.905   7.009  0.7167  0.5603 -1.0737
 5172TIP3   OH232702   6.262   3.641   7.246  0.2951 -0.6395 -0.0794
 5172TIP3    H132703   6.288   3.648   7.154  0.4742  1.9259  0.1039
 5172TIP3    H232704   6.167   3.630   7.243  0.2304 -0.0298 -0.5864
 5173TIP3   OH232705   4.372   4.517   0.418  0.2063  0.2419  0.2011
 5173TIP3    H132706   4.363   4.432   0.462 -1.5313  0.2693 -0.0637
 5173TIP3    H232707   4.409   4.495   0.332 -0.0808 -0.2253  0.1929
 5174TIP3   OH232708   4.261   3.156   6.380  0.3543 -0.4882  0.3378
 5174TIP3    H132709   4.259   3.161   6.285 -1.5392 -1.1636  0.3032
 5174TIP3    H232710   4.195   3.090   6.402  1.7002 -1.3555  2.0757
 5175TIP3   OH232711   3.465   0.445   6.349  0.3664  0.1955 -0.0198
 5175TIP3    H132712   3.409   0.518   6.322  1.1111  0.5260 -0.7259
 5175TIP3    H232713   3.404   0.372   6.362 -0.6809  1.4132  2.7917
 5176TIP3   OH232714   2.112   2.744   0.020 -1.1271 -0.4064  0.1602
 5176TIP3    H132715   2.199   2.759   0.057 -0.5419 -1.8083 -0.5913
 5176TIP3    H232716   2.066   2.692   0.087 -1.3142  0.1107  0.4419
 5177TIP3   OH232717   3.052   1.843   7.255  0.0495 -0.0341 -0.5559
 5177TIP3    H132718   3.127   1.784   7.267  2.2887  2.4903 -1.1393
 5177TIP3    H232719   3.027   1.832   7.164 -0.2098 -0.7673 -0.4046
 5178TIP3   OH232720   2.075   3.815   7.146 -0.3012 -0.3514 -0.2074
 5178TIP3    H132721   2.132   3.889   7.166 -1.0727 -0.3007  2.1450
 5178TIP3    H232722   2.071   3.813   7.050  1.0704  1.6027 -0.3707
 5179TIP3   OH232723   0.957   2.243   7.080  0.3579 -0.0379 -0.4581
 5179TIP3    H132724   0.982   2.231   6.988 -1.2657 -0.5088 -0.8889
 5179TIP3    H232725   0.882   2.183   7.091  0.6603 -0.1379  1.2325
 5180TIP3   OH232726   1.825   5.304   0.853 -0.2486 -0.1228  0.4722
 5180TIP3    H132727   1.862   5.376   0.803  1.9932 -0.0665  2.0594
 5180TIP3    H232728   1.736   5.332   0.874  0.0414  1.4509 -0.2750
 5181TIP3   OH232729   1.473   3.616   1.294  0.0190 -0.4825 -0.0632
 5181TIP3    H132730   1.454   3.525   1.316  0.0720 -0.5118 -0.1396
 5181TIP3    H232731   1.547   3.639   1.351  0.5612 -0.7498 -0.6527
 5182TIP3   OH232732   6.476   5.270   7.034 -0.1421 -0.6300  0.0133
 5182TIP3    H132733   6.453   5.331   7.104  0.8503  0.0318 -0.2248
 5182TIP3    H232734   6.444   5.185   7.066 -0.8214 -0.1295  0.7009
 5183TIP3   OH232735   3.711   4.794   7.172  0.2241  0.4305  0.1855
 5183TIP3    H132736   3.668   4.827   7.093  1.2709  1.0525 -0.1508
 5183TIP3    H232737   3.738   4.873   7.219  2.8462  0.1443 -0.6662
 5184TIP3   OH232738   5.022   4.311   1.328 -0.1857 -0.0273 -0.4046
 5184TIP3    H132739   5.106   4.357   1.319 -0.0701 -0.5315 -2.1972
 5184TIP3    H232740   4.984   4.347   1.409  2.0903 -0.3586  0.8983
 5185TIP3   OH232741   1.966   6.383   0.715 -0.3415 -0.5125  0.3727
 5185TIP3    H132742   2.018   6.459   0.741 -1.1739 -0.1952  1.1557
 5185TIP3    H232743   1.976   6.379   0.619 -0.1644  0.4879  0.3375
 5186TIP3   OH232744   2.976   1.171   0.508 -0.0717 -0.4354  0.2328
 5186TIP3    H132745   3.033   1.180   0.585  0.0119 -0.9572  0.2352
 5186TIP3    H232746   3.032   1.191   0.434 -0.0837 -0.1933  0.2882
 5187TIP3   OH232747   0.974   3.315   7.099 -0.2600  0.1032 -0.4890
 5187TIP3    H132748   0.984   3.233   7.050  0.5461 -1.3567  1.9300
 5187TIP3    H232749   0.881   3.319   7.119  0.1313 -2.3775  2.6020
 5188TIP3   OH232750   6.398   6.386   6.518 -0.3352 -0.3223  0.2561
 5188TIP3    H132751   6.328   6.321   6.512 -0.8928  0.2686  0.2689
 5188TIP3    H232752   6.479   6.335   6.513 -0.7589 -1.1002  1.0988
 5189TIP3   OH232753   1.988   1.765   5.430 -0.2140  0.3523  0.1550
 5189TIP3    H132754   2.065   1.793   5.379  0.3379  1.7440  1.6948
 5189TIP3    H232755   2.024   1.736   5.514 -1.2124 -0.8866  0.1880
 5190TIP3   OH232756   4.186   1.376   7.527  0.0071 -0.0086  0.6117
 5190TIP3    H132757   4.157   1.317   7.597  0.1567 -3.1209 -1.7507
 5190TIP3    H232758   4.113   1.438   7.518 -1.1632 -1.1338  1.7777
 5191TIP3   OH232759   3.016   4.777   7.266  0.1535  0.2370 -0.4014
 5191TIP3    H132760   2.973   4.730   7.337  0.5264 -0.2328 -0.4832
 5191TIP3    H232761   2.983   4.867   7.273  1.7696  0.7726  1.7163
 5192TIP3   OH232762   4.337   2.496   6.155  0.3966  0.2597  0.1859
 5192TIP3    H132763   4.397   2.422   6.167 -0.2269 -0.4610 -0.9013
 5192TIP3    H232764   4.350   2.550   6.232  2.4424  0.1358  0.0037
 5193TIP3   OH232765   1.888   4.341   6.544 -0.2420 -0.8042  0.6720
 5193TIP3    H132766   1.966   4.300   6.581  0.5083 -0.2893 -0.2738
 5193TIP3    H232767   1.899   4.434   6.565  0.2618 -0.4844 -0.8843
 5194TIP3   OH232768   6.119   3.020   7.116 -0.0370 -0.1839 -0.0413
 5194TIP3    H132769   6.030   3.001   7.145  0.0719  0.7892  0.9960
 5194TIP3    H232770   6.175   2.968   7.174  0.1345  0.7553  0.6524
 5195TIP3   OH232771   0.967   3.111   1.860  0.2792  0.1865 -0.1178
 5195TIP3    H132772   0.916   3.037   1.892  0.6299  1.1367  2.9266
 5195TIP3    H232773   1.034   3.071   1.805 -0.1856 -1.6341  0.5512
 5196TIP3   OH232774   4.655   6.275   1.548  0.6625  0.6150  0.4657
 5196TIP3    H132775   4.561   6.266   1.535  0.6264  2.2244 -0.7095
 5196TIP3    H232776   4.664   6.337   1.620  0.8358  0.1355  0.8628
 5197TIP3   OH232777   1.216   5.784   7.504 -0.5124 -0.2976  0.4925
 5197TIP3    H132778   1.292   5.801   7.559 -0.7017  1.5626  0.2189
 5197TIP3    H232779   1.252   5.772   7.416 -0.3581 -1.6789  0.7232
 5198TIP3   OH232780   5.663   2.217   1.210 -0.3632  0.5158  0.9093
 5198TIP3    H132781   5.597   2.167   1.162 -1.2292 -0.7358  3.2459
 5198TIP3    H232782   5.614   2.266   1.276  0.9115  0.1809  2.1695
 5199TIP3   OH232783   2.726   1.107   0.034 -0.6805 -0.1004  0.5422
 5199TIP3    H132784   2.704   1.016   0.015 -1.9359  0.2976 -0.0266
 5199TIP3    H232785   2.645   1.155   0.019  0.4134  1.3899 -0.9996
 5200TIP3   OH232786   0.470   6.223   7.467  0.3014  0.4326  0.5194
 5200TIP3    H132787   0.505   6.135   7.455 -1.0116 -0.1765  0.9845
 5200TIP3    H232788   0.538   6.281   7.431  0.4987 -0.8363 -1.2562
 5201TIP3   OH232789   1.764   5.703   7.614 -0.4260 -0.4442  0.1039
 5201TIP3    H132790   1.705   5.704   7.539 -1.2487  2.0760  0.6942
 5201TIP3    H232791   1.829   5.770   7.594  0.3047 -0.8771  0.9477
 5202TIP3   OH232792   5.801   4.597   7.515 -0.0066  0.0023 -0.4395
 5202TIP3    H132793   5.721   4.555   7.482 -0.6116  0.6375  0.2064
 5202TIP3    H232794   5.785   4.611   7.608  1.2804 -0.8140 -0.0740
 5203TIP3   OH232795   3.396   2.289   2.332  0.0361 -0.1135 -0.2260
 5203TIP3    H132796   3.312   2.305   2.374  1.1509  0.9174  1.7901
 5203TIP3    H232797   3.433   2.214   2.380  0.9765  0.5399  0.1000
 5204TIP3   OH232798   2.985   4.059   6.504 -0.5330  0.3017 -0.7225
 5204TIP3    H132799   2.928   3.983   6.499  0.7574 -0.7610  0.2293
 5204TIP3    H232800   3.074   4.024   6.499  0.1839  1.4733  1.9615
 5205TIP3   OH232801   4.699   1.083   0.048 -0.1389 -0.2372  0.4896
 5205TIP3    H132802   4.779   1.036   0.025  0.2291  0.1106  1.0320
 5205TIP3    H232803   4.633   1.014   0.058 -0.0785 -0.4669 -0.6146
 5206TIP3   OH232804   6.298   1.196   1.827 -0.3017 -0.3493  0.2347
 5206TIP3    H132805   6.336   1.181   1.913 -0.9494 -0.0269  0.5864
 5206TIP3    H232806   6.219   1.142   1.826 -1.0216  0.6616  0.3642
 5207TIP3   OH232807   2.654   2.955   2.178  0.1564  0.5594  0.1050
 5207TIP3    H132808   2.741   2.942   2.141 -0.0704  0.2747 -0.3343
 5207TIP3    H232809   2.640   3.050   2.174  0.8362  0.7164  1.0836
 5208TIP3   OH232810   4.412   5.552   7.343 -0.1935 -0.2969  0.4178
 5208TIP3    H132811   4.387   5.550   7.436  0.0304 -1.3506  0.4702
 5208TIP3    H232812   4.392   5.464   7.312  1.6839 -0.6048 -0.0085
 5209TIP3   OH232813   3.274   2.560   2.229  0.6362 -0.2962  0.3045
 5209TIP3    H132814   3.265   2.556   2.324 -1.7996  1.5325  0.2434
 5209TIP3    H232815   3.220   2.634   2.202  1.3392 -0.6657 -2.5232
 5210TIP3   OH232816   1.024   4.305   0.250 -0.8295  0.2281  0.0242
 5210TIP3    H132817   1.108   4.340   0.283 -0.6251  1.2846 -1.5427
 5210TIP3    H232818   0.958   4.365   0.284 -1.0287 -0.7064  1.4122
 5211TIP3   OH232819   4.629   2.152   7.288  0.4253  0.5584 -0.1315
 5211TIP3    H132820   4.597   2.168   7.200  2.3035 -0.6004 -1.0892
 5211TIP3    H232821   4.697   2.218   7.303  1.8290 -0.7109 -0.5744
 5212TIP3   OH232822   1.344   5.504   6.585  0.6342  0.5795 -0.4350
 5212TIP3    H132823   1.336   5.411   6.563  0.4774  0.3091  0.6875
 5212TIP3    H232824   1.416   5.536   6.530  0.5267 -0.1416 -1.0108
 5213TIP3   OH232825   5.132   4.606   1.030  0.0328 -0.2791 -0.2083
 5213TIP3    H132826   5.066   4.581   1.094 -0.1466  1.0863  0.1748
 5213TIP3    H232827   5.082   4.630   0.952  0.2827 -2.6357 -1.1638
 5214TIP3   OH232828   0.473   4.400   0.124 -0.2155 -0.2839  0.4290
 5214TIP3    H132829   0.408   4.467   0.103 -0.6719 -0.5221  1.0742
 5214TIP3    H232830   0.422   4.321   0.144  0.3300 -1.4228 -2.1917
 5215TIP3   OH232831   4.734   2.215   6.618 -0.0252  0.8615 -0.0850
 5215TIP3    H132832   4.723   2.226   6.524 -0.5764 -1.5678 -0.3892
 5215TIP3    H232833   4.664   2.154   6.643 -0.3153  1.9676  2.0474
 5216TIP3   OH232834   3.533   3.663   6.549  0.0015 -0.1457 -0.2450
 5216TIP3    H132835   3.577   3.627   6.472  0.6439 -2.3404  1.0627
 5216TIP3    H232836   3.591   3.641   6.622 -0.9936  1.1270  0.9801
 5217TIP3   OH232837   2.346   6.341   1.618 -0.2734 -0.4419 -0.0894
 5217TIP3    H132838   2.273   6.402   1.627 -0.7706 -1.1118  0.6417
 5217TIP3    H232839   2.337   6.282   1.693  1.8671  0.3193  0.8399
 5218TIP3   OH232840   6.062   0.586   7.161 -0.5662  0.3006 -0.2442
 5218TIP3    H132841   6.115   0.562   7.085 -1.8598 -0.2237 -1.0074
 5218TIP3    H232842   6.020   0.668   7.135 -1.1300  0.0395 -0.1744
 5219TIP3   OH232843   0.024   4.430   2.074 -0.0133  0.2278  0.1507
 5219TIP3    H132844  -0.008   4.488   2.144 -0.0721 -2.7211  2.7950
 5219TIP3    H232845   0.119   4.434   2.082 -0.0382 -1.2292  1.4755
 5220TIP3   OH232846   2.803   3.563   6.634  0.0976  0.1700 -0.0327
 5220TIP3    H132847   2.721   3.543   6.679 -0.5206  2.2498 -0.1324
 5220TIP3    H232848   2.826   3.481   6.589 -2.8903  0.0020 -1.4875
 5221TIP3   OH232849   0.048   1.999   6.673  0.2173  0.1717  0.1380
 5221TIP3    H132850   0.142   2.015   6.667  0.1135  0.5377 -0.7065
 5221TIP3    H232851   0.019   1.991   6.582 -0.4873 -0.4227  0.4019
 5222TIP3   OH232852   4.515   0.805   1.378 -0.3384  0.4265 -0.3624
 5222TIP3    H132853   4.429   0.829   1.411 -1.2647  1.2758 -3.0857
 5222TIP3    H232854   4.535   0.871   1.312  1.1979 -1.1827 -1.6321
 5223TIP3   OH232855   2.014   2.338   7.272  0.6725 -0.1304  0.0542
 5223TIP3    H132856   1.936   2.322   7.219  1.6159  0.6099 -1.6327
 5223TIP3    H232857   2.008   2.274   7.343 -2.0613  0.7031  0.6951
 5224TIP3   OH232858   5.037   0.075   1.252  0.6280 -0.1404  0.1245
 5224TIP3    H132859   4.997   0.035   1.174 -0.2838  1.8854 -0.5264
 5224TIP3    H232860   5.048   0.167   1.228  1.8984  0.1876  1.8217
 5225TIP3   OH232861   0.344   2.517   1.764 -0.1227  0.1078 -0.1194
 5225TIP3    H132862   0.306   2.577   1.699 -0.0517 -0.1743 -0.4235
 5225TIP3    H232863   0.291   2.438   1.757  0.3285 -0.1757 -0.3253
 5226TIP3   OH232864   2.539   2.694   2.202  0.1091  0.0162  0.3583
 5226TIP3    H132865   2.601   2.767   2.208 -0.2879  0.3108  1.0691
 5226TIP3    H232866   2.513   2.677   2.293 -0.5920 -0.3169  0.1045
 5227TIP3   OH232867   2.033   1.746   1.205 -0.9391 -0.0117  0.1365
 5227TIP3    H132868   2.007   1.833   1.175 -1.4317 -0.7276 -1.7127
 5227TIP3    H232869   1.954   1.693   1.193 -0.2123 -1.0321 -0.2432
 5228TIP3   OH232870   2.025   3.991   2.517  0.5676  0.0535 -0.0215
 5228TIP3    H132871   2.114   3.955   2.520 -0.2232 -2.0146  0.0192
 5228TIP3    H232872   1.982   3.955   2.594 -1.1163 -1.3148 -1.5179
 5229TIP3   OH232873   1.811   3.573   0.467 -0.1723  0.1666  0.2309
 5229TIP3    H132874   1.895   3.618   0.473  0.2335 -0.5910  0.2616
 5229TIP3    H232875   1.833   3.483   0.444 -1.0164  0.1277 -0.4984
 5230TIP3   OH232876   5.530   4.811   6.384  0.7267 -0.0643  0.5090
 5230TIP3    H132877   5.464   4.868   6.344  0.4557 -0.6645  0.0784
 5230TIP3    H232878   5.596   4.800   6.316  1.4806  0.8602  1.0816
 5231TIP3   OH232879   4.321   1.421   0.179 -0.1008 -0.4095 -0.0509
 5231TIP3    H132880   4.402   1.469   0.195 -0.0862 -1.0070  2.0028
 5231TIP3    H232881   4.343   1.358   0.111  1.4344 -1.1443  1.0826
 5232TIP3   OH232882   0.536   0.946   1.774 -0.1115 -0.4980  0.1336
 5232TIP3    H132883   0.608   0.899   1.732  0.6765 -1.6343  2.5851
 5232TIP3    H232884   0.552   0.936   1.868 -2.7883  0.3252  0.7648
 5233TIP3   OH232885   5.871   3.008   2.194  0.2040  0.3494 -0.2968
 5233TIP3    H132886   5.834   3.093   2.171 -0.4335 -0.1303 -1.0621
 5233TIP3    H232887   5.882   3.012   2.289 -0.2574  1.1100 -0.2680
 5234TIP3   OH232888   2.268   0.306   6.881  0.7450  0.6637  0.1194
 5234TIP3    H132889   2.252   0.213   6.892  0.2092  0.4794 -1.8117
 5234TIP3    H232890   2.310   0.333   6.962 -2.0689 -0.5347  2.1516
 5235TIP3   OH232891   2.193   2.634   6.350  0.2179 -0.0921  0.0178
 5235TIP3    H132892   2.176   2.689   6.426 -2.0009 -1.7870  0.8456
 5235TIP3    H232893   2.174   2.690   6.275  0.0579  0.8787  0.7706
 5236TIP3   OH232894   3.606   1.968   7.496  0.5293 -0.2733 -0.1619
 5236TIP3    H132895   3.518   1.952   7.461  0.8204 -0.3655 -0.8862
 5236TIP3    H232896   3.659   1.897   7.459  0.7173 -0.7950  1.0657
 5237TIP3   OH232897   1.389   1.286   7.488  0.3945  0.3224 -0.7324
 5237TIP3    H132898   1.356   1.220   7.427 -1.2095  0.1897  0.2124
 5237TIP3    H232899   1.326   1.358   7.483  2.4510  2.1404 -2.2139
 5238TIP3   OH232900   3.253   4.919   6.763  0.1732  0.8360 -0.0752
 5238TIP3    H132901   3.274   4.981   6.832 -2.2825  0.3579  1.2101
 5238TIP3    H232902   3.252   4.834   6.806 -1.0982  0.4966 -0.7118
 5239TIP3   OH232903   3.944   4.662   6.045  0.4873 -0.0011  0.4454
 5239TIP3    H132904   3.903   4.582   6.012 -1.4249  0.7277  0.9100
 5239TIP3    H232905   4.019   4.676   5.988  1.3830 -2.5500  0.8712
 5240TIP3   OH232906   0.006   2.209   6.832  0.4305  0.2331  0.2212
 5240TIP3    H132907  -0.003   2.125   6.787  0.9309 -0.0468  0.6368
 5240TIP3    H232908   0.019   2.273   6.762 -2.1012  0.3063 -0.2798
 5241TIP3   OH232909   2.208   2.894   0.903  0.3644  0.0090 -0.7249
 5241TIP3    H132910   2.266   2.837   0.852  2.5521 -0.3635  1.9713
 5241TIP3    H232911   2.162   2.835   0.962 -1.9267  0.4601 -1.9388
 5242TIP3   OH232912   2.351   1.578   6.992 -0.3535 -0.2804 -0.6064
 5242TIP3    H132913   2.356   1.545   7.081 -2.8725  1.2791  0.2137
 5242TIP3    H232914   2.430   1.632   6.982  0.7313 -1.6745  0.0698
 5243TIP3   OH232915   3.535   2.065   2.379  0.3022 -0.1051 -0.0903
 5243TIP3    H132916   3.458   2.027   2.336  0.4367 -0.4014 -0.0688
 5243TIP3    H232917   3.552   2.007   2.453 -0.2429  0.6828  0.6878
 5244TIP3   OH232918   3.068   4.842   0.724  0.3329 -0.2946 -0.0083
 5244TIP3    H132919   3.155   4.858   0.688  0.4996 -1.5250 -0.2039
 5244TIP3    H232920   3.015   4.917   0.695  1.2759  0.3781 -0.0300
 5245TIP3   OH232921   4.810   5.372   7.670 -0.0933 -0.2124 -0.2575
 5245TIP3    H132922   4.887   5.321   7.644 -0.7678 -1.2595 -0.2417
 5245TIP3    H232923   4.760   5.313   7.726 -0.7140  0.6041  0.0679
 5246TIP3   OH232924   4.270   5.543   6.048  0.4954 -0.3038 -0.1122
 5246TIP3    H132925   4.333   5.497   6.104  0.4446 -1.0329 -0.6273
 5246TIP3    H232926   4.270   5.633   6.080  1.7141 -0.3113 -0.0222
 5247TIP3   OH232927   2.917   3.686   6.891  0.2925  0.5549 -0.5321
 5247TIP3    H132928   2.958   3.621   6.947  1.4461  1.0431 -0.7785
 5247TIP3    H232929   2.885   3.637   6.816 -1.8536 -0.2106  0.7988
 5248TIP3   OH232930   3.558   1.092   5.610 -0.5463  0.2230 -0.4964
 5248TIP3    H132931   3.504   1.035   5.555  0.3956  0.4219 -1.6805
 5248TIP3    H232932   3.644   1.091   5.568  0.4873 -0.3388  1.5257
 5249TIP3   OH232933   2.028   4.878   6.616 -0.6753 -0.0347  0.5041
 5249TIP3    H132934   1.939   4.883   6.582 -0.8972 -0.3380  1.0308
 5249TIP3    H232935   2.076   4.945   6.568 -1.3852  0.7157  0.8169
 5250TIP3   OH232936   4.070   5.594   0.458  0.3173 -0.2200  0.2405
 5250TIP3    H132937   4.123   5.635   0.526  0.6085  0.5373 -0.4286
 5250TIP3    H232938   4.088   5.645   0.379 -0.1399 -0.9811 -0.3720
 5251TIP3   OH232939   3.673   5.748   1.809 -0.1581  0.1147 -0.0208
 5251TIP3    H132940   3.688   5.840   1.790  1.2696 -0.0613  0.0795
 5251TIP3    H232941   3.581   5.742   1.833 -1.0796  1.0001 -2.9203
 5252TIP3   OH232942   2.690   2.832   0.707 -0.7780 -0.0925  0.1046
 5252TIP3    H132943   2.694   2.738   0.722  0.7712  0.1300  1.3507
 5252TIP3    H232944   2.729   2.871   0.785 -1.1495  1.5853 -0.4927
 5253TIP3   OH232945   3.326   1.036   7.749  0.1313 -0.5851  0.0143
 5253TIP3    H132946   3.249   1.072   7.706  1.2491 -0.5531 -2.1254
 5253TIP3    H232947   3.320   0.942   7.734 -1.2888 -1.0973  3.0567
 5254TIP3   OH232948   3.552   4.892   2.145  0.0457 -0.3422  0.0007
 5254TIP3    H132949   3.478   4.885   2.084  1.6582 -2.9131 -1.8440
 5254TIP3    H232950   3.623   4.844   2.103  1.6266 -1.3430  3.4670
 5255TIP3   OH232951   2.894   3.239   1.390 -0.0365  0.2200 -0.1719
 5255TIP3    H132952   2.920   3.237   1.482 -2.8689  0.2978  0.7245
 5255TIP3    H232953   2.887   3.332   1.369 -2.2455  0.2798  0.5264
 5256TIP3   OH232954   5.435   2.989   7.693  0.4690 -0.3191  0.3433
 5256TIP3    H132955   5.494   2.965   7.622  1.0975  0.5747  0.5363
 5256TIP3    H232956   5.347   2.985   7.655  0.7588 -0.4396 -0.3100
 5257TIP3   OH232957   3.584   5.402   1.326 -0.0906 -0.2818 -0.7350
 5257TIP3    H132958   3.514   5.337   1.331 -0.5988  0.1669 -1.7277
 5257TIP3    H232959   3.573   5.455   1.405 -0.5893 -0.4935 -0.6597
 5258TIP3   OH232960   4.309   2.175   6.870  0.0502 -0.2988 -0.6456
 5258TIP3    H132961   4.232   2.155   6.818 -0.5013 -1.1536  0.4609
 5258TIP3    H232962   4.287   2.147   6.958  0.5384  2.1213  0.3275
 5259TIP3   OH232963   2.583   0.198   5.923  0.5867 -0.1594 -0.5309
 5259TIP3    H132964   2.662   0.165   5.967 -0.3602 -1.1739  0.4594
 5259TIP3    H232965   2.592   0.167   5.833  0.4983 -1.7959 -0.0113
 5260TIP3   OH232966   3.676   4.130   1.040 -0.7745 -0.0471 -0.3498
 5260TIP3    H132967   3.636   4.045   1.023  0.6973 -0.6449 -0.9465
 5260TIP3    H232968   3.770   4.115   1.034 -0.3597  1.1074  1.9779
 5261TIP3   OH232969   2.201   6.170   6.664 -0.3231  0.0500  0.0426
 5261TIP3    H132970   2.291   6.195   6.643 -0.4154 -0.6310 -1.2545
 5261TIP3    H232971   2.210   6.096   6.724 -0.0075 -0.2237 -0.3358
 5262TIP3   OH232972   0.555   1.444   7.168 -0.0763 -0.4391  0.4426
 5262TIP3    H132973   0.534   1.351   7.158 -2.4190 -0.0074  0.7925
 5262TIP3    H232974   0.572   1.474   7.078  1.7555 -1.3534  0.4166
 5263TIP3   OH232975   0.146   4.060   1.214 -0.0975 -0.4774  0.2040
 5263TIP3    H132976   0.080   4.005   1.173  0.9147 -0.7196 -1.1484
 5263TIP3    H232977   0.226   4.041   1.166  0.9941 -0.2628  1.8659
 5264TIP3   OH232978   6.157   0.962   0.612 -0.4658  0.2033 -0.2849
 5264TIP3    H132979   6.169   0.930   0.701  1.3399  0.2628 -0.4792
 5264TIP3    H232980   6.088   0.907   0.576  2.1614 -3.3018 -0.4683
 5265TIP3   OH232981   3.191   0.804   1.215  0.4662 -0.1141 -0.1869
 5265TIP3    H132982   3.118   0.843   1.166  1.4636  1.4311 -0.5195
 5265TIP3    H232983   3.268   0.821   1.160  1.3817  0.2323  1.1559
 5266TIP3   OH232984   2.474   2.720   1.941 -0.2439 -0.6542  0.0036
 5266TIP3    H132985   2.502   2.706   2.031 -0.8459 -0.9210  0.1544
 5266TIP3    H232986   2.548   2.765   1.900  0.1944 -0.8803  0.5228
 5267TIP3   OH232987   3.247   2.824   0.634  0.2251 -0.1057 -0.5836
 5267TIP3    H132988   3.274   2.733   0.617  1.9065  0.5107 -1.4128
 5267TIP3    H232989   3.214   2.822   0.724  2.5442 -1.0938  0.3228
 5268TIP3   OH232990   1.713   5.505   7.111 -0.1280 -0.3991  0.1182
 5268TIP3    H132991   1.771   5.450   7.164  0.6265  0.1382 -0.1317
 5268TIP3    H232992   1.768   5.536   7.040 -0.7760 -0.0122 -0.2213
 5269TIP3   OH232993   3.703   0.729   0.240  0.0937  0.0274  0.4154
 5269TIP3    H132994   3.670   0.805   0.191  0.1208 -0.9938 -1.2577
 5269TIP3    H232995   3.625   0.687   0.275  0.0142  0.3559  0.6352
 5270TIP3   OH232996   4.722   3.092   7.305  0.6632  0.1526  0.2674
 5270TIP3    H132997   4.708   3.096   7.400  1.9452  1.5990  0.4271
 5270TIP3    H232998   4.634   3.088   7.269  0.1567 -0.8751  1.5218
 5271TIP3   OH232999   1.833   1.581   1.751  0.2710  0.2826  0.0007
 5271TIP3    H133000   1.799   1.670   1.755 -0.2346  0.0583  0.7625
 5271TIP3    H233001   1.928   1.592   1.745  0.2862  0.8673  1.0821
 5272TIP3   OH233002   4.844   3.191   1.740 -0.1808  0.2538  0.4231
 5272TIP3    H133003   4.872   3.278   1.711  1.4426 -0.7499 -1.2878
 5272TIP3    H233004   4.884   3.180   1.826  0.7625  0.6979  0.0582
 5273TIP3   OH233005   5.896   0.733   0.150 -0.6472  0.1737 -0.0476
 5273TIP3    H133006   5.974   0.735   0.206  0.2789  0.8015 -1.3099
 5273TIP3    H233007   5.931   0.725   0.061 -2.1181 -2.6882 -0.4713
 5274TIP3   OH233008   5.676   4.218   1.614 -0.2440  0.4974 -0.1598
 5274TIP3    H133009   5.731   4.146   1.646 -0.6819  1.1148  2.1132
 5274TIP3    H233010   5.731   4.296   1.622 -0.5899  0.7573 -0.3006
 5275TIP3   OH233011   3.116   2.196   5.468  0.6686 -0.6880 -0.1603
 5275TIP3    H133012   3.189   2.187   5.406  0.8148  0.9345 -0.2684
 5275TIP3    H233013   3.088   2.287   5.458 -0.0953 -0.7392  1.3070
 5276TIP3   OH233014   3.026   3.906   0.085 -0.1049  0.2101  0.3154
 5276TIP3    H133015   3.097   3.946   0.033  1.3254 -0.8163  1.3976
 5276TIP3    H233016   2.984   3.845   0.024  0.2557  0.4792 -0.2152
 5277TIP3   OH233017   4.083   5.610   7.682 -0.1669  0.5620  0.5102
 5277TIP3    H133018   4.001   5.566   7.660  0.7798 -0.8016 -0.4464
 5277TIP3    H233019   4.098   5.670   7.608 -0.8523  1.6563  1.2360
 5278TIP3   OH233020   0.975   1.776   0.463  0.3975  0.8014  0.4710
 5278TIP3    H133021   1.043   1.753   0.526  0.1967 -1.9995 -0.2093
 5278TIP3    H233022   1.018   1.768   0.378 -0.2052  1.1843  0.1220
 5279TIP3   OH233023   6.600   5.378   2.072  0.0396 -0.2469  0.1669
 5279TIP3    H133024   6.518   5.329   2.062  0.3275 -0.3130 -2.6237
 5279TIP3    H233025   6.574   5.461   2.112 -0.9974 -1.1835  1.5367
 5280TIP3   OH233026   5.597   0.304   1.127  0.4578  1.3900 -0.1219
 5280TIP3    H133027   5.574   0.296   1.034  1.0309  1.1667 -0.2483
 5280TIP3    H233028   5.538   0.244   1.172  0.9557  0.6250 -0.4691
 5281TIP3   OH233029   1.668   4.290   1.808  0.0520 -0.1486  0.3154
 5281TIP3    H133030   1.753   4.309   1.849 -0.2349  1.5262  0.1808
 5281TIP3    H233031   1.673   4.332   1.722 -1.7947  2.1683  1.2523
 5282TIP3   OH233032   1.671   3.659   6.624  0.6736  0.0829  0.1451
 5282TIP3    H133033   1.695   3.721   6.555 -0.8813 -0.3788 -0.8737
 5282TIP3    H233034   1.750   3.650   6.677  1.6385  1.1454 -1.0420
 5283TIP3   OH233035   0.749   1.153   7.379  0.1238 -0.1943 -0.4635
 5283TIP3    H133036   0.762   1.119   7.467  0.2338 -0.0203 -0.4114
 5283TIP3    H233037   0.731   1.246   7.392 -0.3732 -0.2705 -0.5905
 5284TIP3   OH233038   4.990   3.963   1.302 -0.4558  0.1360 -0.4243
 5284TIP3    H133039   5.003   3.873   1.273  0.2994 -0.4865  1.6861
 5284TIP3    H233040   5.002   4.016   1.222  2.6688 -1.3695 -1.0854
 5285TIP3   OH233041   3.764   0.723   0.883 -0.2309 -0.0764 -0.2411
 5285TIP3    H133042   3.700   0.793   0.898 -0.8575 -0.9314  1.2559
 5285TIP3    H233043   3.848   0.769   0.880 -0.7264  0.8603 -0.3353
 5286TIP3   OH233044   3.525   4.001   2.090  1.1475  0.5647  0.2312
 5286TIP3    H133045   3.439   3.978   2.124  0.9023  1.0906 -0.0295
 5286TIP3    H233046   3.583   3.932   2.124  1.0382  1.4003  2.2197
 5287TIP3   OH233047   5.437   3.724   6.865  0.1624  0.7239 -0.0698
 5287TIP3    H133048   5.491   3.655   6.902 -0.2674  0.5274  0.1955
 5287TIP3    H233049   5.395   3.684   6.788  2.3741  1.6190 -1.8357
 5288TIP3   OH233050   0.046   3.480   1.796  0.0241  0.0564 -0.6672
 5288TIP3    H133051  -0.028   3.462   1.854 -0.8353 -0.4183 -1.8819
 5288TIP3    H233052   0.122   3.479   1.854 -0.9240  0.7989  0.6521
 5289TIP3   OH233053   0.825   5.115   7.147  0.0784 -0.2749 -0.0417
 5289TIP3    H133054   0.857   5.203   7.170 -2.6582  0.5501  1.0271
 5289TIP3    H233055   0.748   5.102   7.203 -2.7615 -1.1496 -3.7554
 5290TIP3   OH233056   2.073   4.130   0.945 -0.0547  0.0072 -0.4597
 5290TIP3    H133057   2.015   4.065   0.906  0.6282 -0.6283 -0.4177
 5290TIP3    H233058   2.150   4.132   0.888  0.4093 -0.0269  0.1481
 5291TIP3   OH233059   2.015   1.433   0.380  0.3471  0.1870 -0.4824
 5291TIP3    H133060   1.951   1.460   0.445  0.7158  0.2564 -0.1441
 5291TIP3    H233061   2.015   1.338   0.383 -0.4201  0.1574 -1.1520
 5292TIP3   OH233062   1.044   3.738   7.547  0.2062 -0.2383  0.0680
 5292TIP3    H133063   1.109   3.727   7.477 -0.3853 -2.1248 -0.2535
 5292TIP3    H233064   1.085   3.798   7.608  2.0151 -0.8748 -0.4416
 5293TIP3   OH233065   3.183   5.175   0.007  0.1050  0.1654  0.0325
 5293TIP3    H133066   3.164   5.152  -0.084  1.4364 -1.2622  0.0725
 5293TIP3    H233067   3.259   5.121   0.030 -2.0423 -1.9920  2.9572
 5294TIP3   OH233068   2.107   5.363   0.685 -0.3972 -0.6159 -0.3568
 5294TIP3    H133069   2.126   5.352   0.592  1.0185  0.5885 -0.2393
 5294TIP3    H233070   2.033   5.424   0.687  1.5509  1.9012 -0.6924
 5295TIP3   OH233071   1.814   4.976   6.985  0.2468  0.5484  0.1991
 5295TIP3    H133072   1.805   5.062   6.945 -0.2832  0.3117 -0.2052
 5295TIP3    H233073   1.808   4.915   6.911  1.0067  0.1834  0.4366
 5296TIP3   OH233074   1.891   0.982   1.404  0.4809  0.2020 -0.2815
 5296TIP3    H133075   1.864   0.890   1.402 -0.0489  0.2937  1.0904
 5296TIP3    H233076   1.925   0.995   1.493 -1.9684  1.9722  0.5371
 5297TIP3   OH233077   2.357   0.640   0.880 -0.2654  0.2797  0.3599
 5297TIP3    H133078   2.291   0.676   0.820  0.3472  1.5403  0.4011
 5297TIP3    H233079   2.377   0.712   0.939  1.6966  0.1923 -0.1289
 5298TIP3   OH233080   5.091   1.357   1.336 -0.8772 -0.3721 -0.1841
 5298TIP3    H133081   5.071   1.445   1.368 -0.6656 -0.4083  0.0635
 5298TIP3    H233082   5.016   1.332   1.283 -1.4709 -0.4962  0.6826
 5299TIP3   OH233083   4.987   0.966   1.609  0.1221 -0.3455 -0.4361
 5299TIP3    H133084   4.987   1.047   1.559 -0.2605  0.7312  1.2113
 5299TIP3    H233085   4.895   0.939   1.612  0.0677 -0.1111  0.1173
 5300TIP3   OH233086   2.080   4.974   1.543 -0.0662  0.0654 -0.2682
 5300TIP3    H133087   2.007   4.940   1.491 -0.3946 -0.2890  0.4137
 5300TIP3    H233088   2.141   5.008   1.478 -0.8976  0.4934 -0.8474
 5301TIP3   OH233089   6.184   1.329   6.922 -0.0734  0.3612 -0.1447
 5301TIP3    H133090   6.144   1.411   6.953  0.5812  0.1494  1.3818
 5301TIP3    H233091   6.194   1.277   7.002  2.4399  0.0837 -0.5780
 5302TIP3   OH233092   4.636   1.902   7.438 -0.0423  0.7640  0.1262
 5302TIP3    H133093   4.651   1.983   7.390 -0.5163  0.9880  0.3561
 5302TIP3    H233094   4.573   1.925   7.506  1.2321  0.6455  1.3974
 5303TIP3   OH233095   1.884   0.714   7.698 -0.2857  0.6316  0.0643
 5303TIP3    H133096   1.908   0.722   7.606  2.1381 -0.8707  0.4964
 5303TIP3    H233097   1.822   0.641   7.701 -1.1218  1.2980 -0.4466
 5304TIP3   OH233098   3.984   3.965   0.473  0.1614  0.2564  0.2197
 5304TIP3    H133099   3.953   3.976   0.563  0.8054  0.1745  0.4574
 5304TIP3    H233100   4.071   3.927   0.482  0.5426  0.9559 -0.4160
 5305TIP3   OH233101   4.804   3.154   6.849 -0.7213  0.2592  0.4400
 5305TIP3    H133102   4.805   3.083   6.912  0.7176  1.0647  1.3787
 5305TIP3    H233103   4.742   3.126   6.782  0.8215 -2.5262  0.0378
 5306TIP3   OH233104   2.005   2.652   0.789  0.2186 -0.1654  0.2864
 5306TIP3    H133105   2.010   2.569   0.836  2.0101 -0.0450  0.3843
 5306TIP3    H233106   1.940   2.704   0.837 -0.5580 -1.3170  0.5068
 5307TIP3   OH233107   6.628   5.074   6.522  0.1099 -0.2580  0.2970
 5307TIP3    H133108   6.687   4.999   6.525  1.4449  0.6945 -0.6439
 5307TIP3    H233109   6.585   5.074   6.608  2.3296 -0.3654  1.5053
 5308TIP3   OH233110   3.370   2.184   6.532 -0.6916 -0.5185  1.0224
 5308TIP3    H133111   3.304   2.166   6.466  0.5248 -1.5483  0.0373
 5308TIP3    H233112   3.320   2.209   6.610 -2.2005 -0.7491  0.1596
 5309TIP3   OH233113   2.471   5.126   2.233  0.0937 -0.2766  0.5899
 5309TIP3    H133114   2.387   5.173   2.239  0.1053 -0.0003 -0.9603
 5309TIP3    H233115   2.529   5.187   2.188  0.5347 -1.2171 -0.1524
 5310TIP3   OH233116   1.240   1.420   0.302  0.1794 -0.8775  0.2683
 5310TIP3    H133117   1.225   1.379   0.387 -1.9301 -0.6372  0.0509
 5310TIP3    H233118   1.215   1.511   0.314  0.7501 -0.6232 -0.3914
 5311TIP3   OH233119   0.178   4.581   7.524 -0.2437 -0.4205 -0.3273
 5311TIP3    H133120   0.141   4.547   7.605  1.1097  1.3305  1.1232
 5311TIP3    H233121   0.108   4.635   7.487  0.1608  1.5341  1.5279
 5312TIP3   OH233122   3.658   2.832   0.220  0.2818 -0.7177  0.0033
 5312TIP3    H133123   3.747   2.849   0.252  0.5160 -1.1362 -0.4119
 5312TIP3    H233124   3.602   2.857   0.293  0.7703 -0.9512  0.4691
 5313TIP3   OH233125   5.653   5.202   1.543  0.8412  0.1662  0.3767
 5313TIP3    H133126   5.669   5.295   1.524  0.1644  0.2803  0.3359
 5313TIP3    H233127   5.562   5.199   1.572  1.1237 -0.3670  1.2350
 5314TIP3   OH233128   3.890   4.841   1.274 -0.3730 -0.0243 -0.6368
 5314TIP3    H133129   3.872   4.765   1.329  0.0199 -0.2945 -0.8732
 5314TIP3    H233130   3.874   4.917   1.330 -0.4480 -0.2899 -0.3010
 5315TIP3   OH233131   1.737   1.494   3.586  0.4158 -0.2143  0.4887
 5315TIP3    H133132   1.687   1.549   3.646  1.0316 -0.4689  1.2600
 5315TIP3    H233133   1.802   1.451   3.642  0.8744 -0.6167 -0.3340
 5316TIP3   OH233134   1.789   2.039   4.286 -0.9008 -0.0468 -0.4379
 5316TIP3    H133135   1.884   2.036   4.299 -0.4344  2.8191 -2.2241
 5316TIP3    H233136   1.752   2.027   4.374  1.2784  1.9471  0.8768
 5317TIP3   OH233137   6.203   4.379   6.784  0.2260 -0.0250  0.1037
 5317TIP3    H133138   6.254   4.359   6.862 -0.8947  1.1722  1.1924
 5317TIP3    H233139   6.139   4.308   6.778 -0.4144  0.4599  0.9573
 5318TIP3   OH233140   2.756   5.271   6.988 -0.3835  0.9729 -0.4005
 5318TIP3    H133141   2.750   5.234   6.900  2.3631  1.0465 -0.7050
 5318TIP3    H233142   2.716   5.358   6.981  0.9480  1.5071 -1.9587
 5319TIP3   OH233143   4.024   1.135   5.548 -0.1235  0.0373  0.0238
 5319TIP3    H133144   4.106   1.181   5.567 -0.7900  1.4030 -0.3607
 5319TIP3    H233145   4.043   1.043   5.570  1.0249  0.5756  1.4062
 5320TIP3   OH233146   4.472   0.830   6.211  0.0233  0.0837  0.2490
 5320TIP3    H133147   4.423   0.763   6.164  2.1344  0.8936 -3.5612
 5320TIP3    H233148   4.531   0.781   6.268  0.2264 -1.3167 -1.0793
 5321TIP3   OH233149   5.966   1.831   7.451  0.2878 -0.4367  0.2626
 5321TIP3    H133150   5.900   1.889   7.489 -0.4153 -0.6018 -0.6666
 5321TIP3    H233151   5.970   1.856   7.359  0.2755 -1.5722 -0.0672
 5322TIP3   OH233152   0.405   6.207   6.748  0.0527  0.1130  0.1467
 5322TIP3    H133153   0.416   6.287   6.799 -0.4144  0.5814 -0.4625
 5322TIP3    H233154   0.493   6.184   6.719  0.0114  1.3501 -1.0436
 5323TIP3   OH233155   3.329   5.092   6.314 -0.1806 -0.1803  0.5806
 5323TIP3    H133156   3.263   5.066   6.378 -0.9233  0.8341  0.2432
 5323TIP3    H233157   3.402   5.124   6.366 -0.2778 -0.5431  0.9405
 5324TIP3   OH233158   0.218   4.458   1.875  0.4563  0.0430  0.0827
 5324TIP3    H133159   0.261   4.487   1.794 -0.0522 -0.9823 -0.5725
 5324TIP3    H233160   0.179   4.538   1.910  2.2171  0.8530  0.2999
 5325TIP3   OH233161   1.581   6.594   6.135  0.2993 -0.3272  0.4735
 5325TIP3    H133162   1.604   6.687   6.140  2.3316 -0.5821 -1.9024
 5325TIP3    H233163   1.652   6.550   6.182  1.2262 -0.7930 -1.2781
 5326TIP3   OH233164   5.194   2.848   7.477 -0.1293  0.2790  0.6064
 5326TIP3    H133165   5.231   2.843   7.389  1.0647  1.0716  1.0457
 5326TIP3    H233166   5.232   2.774   7.524 -1.1206 -0.4144  0.3469
 5327TIP3   OH233167   3.265   0.180   5.889 -0.1741  0.2837  1.0508
 5327TIP3    H133168   3.306   0.093   5.888 -0.7384  0.0140  1.0378
 5327TIP3    H233169   3.229   0.188   5.977 -0.7348  0.2153  0.8261
 5328TIP3   OH233170   0.489   5.075   6.016  0.5646  0.3741  0.3370
 5328TIP3    H133171   0.473   5.013   5.945 -0.2324  0.0215  0.8111
 5328TIP3    H233172   0.421   5.142   6.005  1.7609  1.4875 -0.5106
 5329TIP3   OH233173   5.382   1.434   1.634 -0.0674 -0.4248 -1.2118
 5329TIP3    H133174   5.307   1.382   1.661  1.0199 -1.2665  0.3766
 5329TIP3    H233175   5.410   1.394   1.551 -1.6160  0.2015 -2.0602
 5330TIP3   OH233176   2.919   6.037   7.152  0.6700  0.3112  0.8561
 5330TIP3    H133177   2.933   5.967   7.217 -2.5359 -3.5443 -2.1070
 5330TIP3    H233178   2.993   6.028   7.092 -0.5897 -1.9995 -0.4880
 5331TIP3   OH233179   1.853   2.882   1.335 -0.1934 -0.5798  0.1575
 5331TIP3    H133180   1.798   2.863   1.259  0.8453 -0.3144 -0.6941
 5331TIP3    H233181   1.906   2.957   1.308  1.5547 -1.6621  0.3920
 5332TIP3   OH233182   5.054   3.115   0.046  0.2020 -0.2792 -0.0329
 5332TIP3    H133183   5.061   3.112   0.141  2.5618 -1.0590 -0.1553
 5332TIP3    H233184   5.128   3.169   0.018 -0.1634 -0.4683 -1.4546
 5333TIP3   OH233185   3.984   0.329   2.051 -0.2602 -0.5092  0.4179
 5333TIP3    H133186   4.057   0.280   2.015  0.0352 -0.6704  1.2152
 5333TIP3    H233187   3.926   0.263   2.088 -1.7890 -0.5513 -1.8557
 5334TIP3   OH233188   4.262   0.925   1.000  0.0776 -0.0832 -0.3523
 5334TIP3    H133189   4.188   0.973   1.037  0.7517  1.2734 -0.6809
 5334TIP3    H233190   4.245   0.834   1.022 -1.4597  0.2450 -0.0336
 5335TIP3   OH233191   5.650   6.341   7.742  0.0597 -0.2634  0.1206
 5335TIP3    H133192   5.570   6.383   7.775 -0.5395 -1.0783 -0.2710
 5335TIP3    H233193   5.677   6.283   7.813  0.7964  0.6325  0.5953
 5336TIP3   OH233194   3.042   1.843   0.528 -0.4957 -0.6319  0.2190
 5336TIP3    H133195   3.096   1.789   0.585 -0.9547 -2.2646 -0.8286
 5336TIP3    H233196   3.071   1.932   0.545  1.4396 -1.3315  0.8130
 5337TIP3   OH233197   0.667   5.169   1.296  0.1882 -0.1931  0.5480
 5337TIP3    H133198   0.709   5.231   1.356  0.2981 -0.7830  1.0879
 5337TIP3    H233199   0.687   5.203   1.208 -1.2486  1.5299  0.8320
 5338TIP3   OH233200   4.847   0.273   1.830  0.3356  0.3044 -0.7819
 5338TIP3    H133201   4.793   0.271   1.909  0.1067  0.4207 -0.9351
 5338TIP3    H233202   4.919   0.213   1.849  0.0944  0.0642 -0.6198
 5339TIP3   OH233203   5.344   1.756   0.783 -0.9788 -0.2704 -0.2745
 5339TIP3    H133204   5.426   1.713   0.805 -1.5155 -1.0040  0.3351
 5339TIP3    H233205   5.323   1.724   0.695  0.8167  2.1421 -1.7107
 5340TIP3   OH233206   0.881   6.483   6.340  0.3034  0.9937  0.8570
 5340TIP3    H133207   0.876   6.421   6.268  0.0170 -0.9019  2.4156
 5340TIP3    H233208   0.905   6.566   6.299  0.1208  0.0060 -1.3880
 5341TIP3   OH233209   3.818   2.423   6.669  0.4873  0.1308 -0.3318
 5341TIP3    H133210   3.744   2.441   6.610 -1.1921 -1.3323  1.1986
 5341TIP3    H233211   3.854   2.341   6.637 -0.5953 -0.8089  0.7169
 5342TIP3   OH233212   4.591   1.242   0.512 -0.9095  0.5634 -0.3686
 5342TIP3    H133213   4.553   1.155   0.498 -1.4685  0.7823 -0.2248
 5342TIP3    H233214   4.587   1.284   0.426 -1.4134  0.7501 -0.2564
 5343TIP3   OH233215   2.313   5.933   5.855 -0.0571  0.3910  0.0937
 5343TIP3    H133216   2.282   6.022   5.869 -0.8268  0.6311 -2.6657
 5343TIP3    H233217   2.404   5.942   5.829 -0.4969  0.5203 -1.4733
 5344TIP3   OH233218   3.500   2.135   6.250  0.0493 -0.0771 -0.3942
 5344TIP3    H133219   3.410   2.103   6.251 -0.1488  0.4639 -0.2768
 5344TIP3    H233220   3.520   2.146   6.157 -0.5018  1.1101 -0.4023
 5345TIP3   OH233221   4.447   6.563   1.165  0.0475 -0.1722  0.3091
 5345TIP3    H133222   4.383   6.584   1.097  1.4434  0.1576 -0.9751
 5345TIP3    H233223   4.531   6.589   1.127  0.8414  0.5895  2.4089
 5346TIP3   OH233224   1.061   3.059   7.449 -0.2120 -0.4991  0.3901
 5346TIP3    H133225   1.119   3.134   7.438 -2.3337  1.2359  0.5120
 5346TIP3    H233226   1.099   2.992   7.392  1.5361  0.7649 -0.0205
 5347TIP3   OH233227   1.713   1.702   6.329 -0.3415 -0.1454 -0.2253
 5347TIP3    H133228   1.688   1.652   6.251  0.3192 -0.6683 -0.1016
 5347TIP3    H233229   1.774   1.768   6.297 -2.1174  1.4078 -0.6001
 5348TIP3   OH233230   4.001   2.954   0.029 -0.2075 -0.1420 -0.1333
 5348TIP3    H133231   3.941   3.017  -0.010 -1.7381 -1.4824 -0.0702
 5348TIP3    H233232   3.983   2.959   0.123 -1.4554 -1.7012 -0.2531
 5349TIP3   OH233233   2.161   3.464   6.379  0.0499 -0.0245 -0.1330
 5349TIP3    H133234   2.072   3.498   6.367  0.7553  1.5197 -1.3097
 5349TIP3    H233235   2.217   3.541   6.376  1.4193 -0.9125  1.1335
 5350TIP3   OH233236   0.287   3.507   0.993 -0.0745  0.5796  0.3776
 5350TIP3    H133237   0.232   3.449   0.939  0.1309 -0.7120  1.5126
 5350TIP3    H233238   0.228   3.578   1.019 -0.1309  1.3568 -1.6689
 5351TIP3   OH233239   2.092   0.480   7.567  0.3388 -0.1801 -0.2293
 5351TIP3    H133240   2.085   0.563   7.520 -1.7467 -0.1803 -0.0165
 5351TIP3    H233241   2.125   0.418   7.501 -1.6937  0.0063 -1.5241
 5352TIP3   OH233242   1.594   4.505   0.267  0.2041 -0.0013  0.2584
 5352TIP3    H133243   1.649   4.450   0.322  0.0099 -3.4109 -2.5611
 5352TIP3    H233244   1.653   4.541   0.201 -0.2944 -0.3604 -0.4021
 5353TIP3   OH233245   5.306   4.566   0.681  0.5003 -0.2275 -0.4184
 5353TIP3    H133246   5.382   4.508   0.678 -0.4075 -1.4378 -2.5692
 5353TIP3    H233247   5.247   4.532   0.613 -0.4310  2.7633 -1.2747
 5354TIP3   OH233248   0.452   0.645   5.825  0.3829  0.0141  0.0321
 5354TIP3    H133249   0.529   0.699   5.808 -0.7677  1.1754 -1.7190
 5354TIP3    H233250   0.437   0.598   5.743 -1.0482  0.1843  0.1762
 5355TIP3   OH233251   2.659   0.437   0.945 -0.0957  0.5104 -0.3408
 5355TIP3    H133252   2.649   0.394   0.860 -0.3146  0.5026 -0.3104
 5355TIP3    H233253   2.693   0.368   1.002  1.0245  0.7734 -0.6683
 5356TIP3   OH233254   0.760   4.835   0.000  0.2171  0.6293  0.4719
 5356TIP3    H133255   0.708   4.798   0.072 -1.6640  0.2081 -1.0241
 5356TIP3    H233256   0.818   4.763  -0.025 -0.8817 -0.1087 -0.0430
 5357TIP3   OH233257   1.052   5.008   7.011 -0.0900  0.1708 -0.7844
 5357TIP3    H133258   1.057   5.052   6.926  1.8516  0.5997 -0.4902
 5357TIP3    H233259   1.014   5.073   7.069  3.3956  1.9269 -0.1896
 5358TIP3   OH233260   4.368   5.356   0.360  0.1815 -0.1368 -0.3794
 5358TIP3    H133261   4.441   5.400   0.403 -2.6229  1.7137  3.0558
 5358TIP3    H233262   4.348   5.411   0.284  1.0721  0.5287 -0.1507
 5359TIP3   OH233263   6.062   2.478   7.306  0.4147  0.1419 -0.0904
 5359TIP3    H133264   6.058   2.533   7.384  2.1897 -0.9546  0.8587
 5359TIP3    H233265   6.146   2.432   7.314 -0.7392 -2.3138 -1.0573
 5360TIP3   OH233266   3.420   6.150   5.984  0.1296 -0.0464  0.1817
 5360TIP3    H133267   3.335   6.194   5.972  0.4244  0.8068  1.0922
 5360TIP3    H233268   3.433   6.102   5.902 -2.1376 -1.7922  0.7313
 5361TIP3   OH233269   1.748   4.790   6.783 -0.7686 -0.2350 -0.2139
 5361TIP3    H133270   1.691   4.808   6.707 -0.7895  0.2364 -0.0898
 5361TIP3    H233271   1.706   4.716   6.827 -0.3292 -1.0305 -1.0993
 5362TIP3   OH233272   0.196   0.440   0.527  0.1349 -0.0174  0.1210
 5362TIP3    H133273   0.245   0.453   0.446  0.8035  0.2184  0.5567
 5362TIP3    H233274   0.217   0.517   0.580 -0.8451  0.1822  0.2572
 5363TIP3   OH233275   2.132   4.292   7.263  0.1078  0.4040 -0.2917
 5363TIP3    H133276   2.066   4.283   7.332 -0.3489 -1.7486 -0.9548
 5363TIP3    H233277   2.114   4.379   7.225 -1.4178  0.4611  0.4781
 5364TIP3   OH233278   3.704   0.969   0.692 -0.1473  0.7450 -1.0546
 5364TIP3    H133279   3.685   0.981   0.599  0.3777  2.1713 -0.9997
 5364TIP3    H233280   3.792   1.005   0.704 -0.1261  0.3976 -0.0450
 5365TIP3   OH233281   3.369   5.817   6.951 -0.1549  0.7518 -0.3627
 5365TIP3    H133282   3.350   5.767   6.871  0.5849 -1.6026  0.8360
 5365TIP3    H233283   3.460   5.844   6.941  0.3543 -0.6585  0.1757
 5366TIP3   OH233284   3.039   1.287   6.807  0.0814  0.3380  0.0986
 5366TIP3    H133285   3.109   1.353   6.811  1.0649 -0.5128 -1.7828
 5366TIP3    H233286   3.044   1.253   6.718 -2.0605 -0.5235  0.2543
 5367TIP3   OH233287   5.533   1.179   6.504 -0.0675 -0.4065 -0.0551
 5367TIP3    H133288   5.485   1.253   6.465  3.6613  2.1143 -0.3844
 5367TIP3    H233289   5.491   1.166   6.589 -1.9568  0.9184 -0.7045
 5368TIP3   OH233290   6.205   0.093   0.463  0.2306  0.2409 -0.1862
 5368TIP3    H133291   6.202   0.187   0.481  2.3953  0.8870 -2.5756
 5368TIP3    H233292   6.193   0.086   0.368 -3.0626 -2.2324  0.2191
 5369TIP3   OH233293   5.065   3.551   7.656  0.2302  0.0407 -0.1679
 5369TIP3    H133294   5.104   3.593   7.579  0.2951  1.5666  0.6489
 5369TIP3    H233295   5.129   3.565   7.726  0.0098 -0.9969  0.2549
 5370TIP3   OH233296   1.395   1.530   0.972 -0.1866  0.1133  0.5177
 5370TIP3    H133297   1.464   1.481   0.926 -0.9485 -0.7861  0.2993
 5370TIP3    H233298   1.395   1.495   1.061 -0.0074  0.4931  0.6704
 5371TIP3   OH233299   6.278   2.401   0.856  0.0564  0.9841 -0.3429
 5371TIP3    H133300   6.352   2.445   0.814 -0.2686  0.7611 -1.1599
 5371TIP3    H233301   6.236   2.470   0.908 -0.7131  1.7877 -1.9595
 5372TIP3   OH233302   2.821   0.550   6.607 -0.0191 -0.2729  0.5107
 5372TIP3    H133303   2.882   0.574   6.538 -0.9271 -0.0547 -0.2365
 5372TIP3    H233304   2.864   0.479   6.655  1.2909  0.6157  0.7013
 5373TIP3   OH233305   5.033   4.980   1.582  0.4922  0.2962 -0.2020
 5373TIP3    H133306   4.946   5.019   1.590 -0.3351 -1.6211  0.9555
 5373TIP3    H233307   5.077   5.002   1.664 -0.4279 -2.0621  1.0187
 5374TIP3   OH233308   5.954   3.016   2.447  0.0834 -0.2459 -0.1443
 5374TIP3    H133309   5.870   2.986   2.481  0.0346  0.4549  0.3829
 5374TIP3    H233310   6.008   2.937   2.444  0.0972 -0.3492  1.6326
 5375TIP3   OH233311   3.446   3.245   6.804  0.0711 -0.7627  0.2113
 5375TIP3    H133312   3.507   3.179   6.837  0.6656 -0.6161 -0.5880
 5375TIP3    H233313   3.432   3.304   6.879  0.3775 -1.1755  0.5962
 5376TIP3   OH233314   0.761   3.294   0.494 -0.6095 -0.2704  0.2211
 5376TIP3    H133315   0.667   3.310   0.494 -0.8196 -1.3961 -0.2917
 5376TIP3    H233316   0.770   3.200   0.480  0.6005 -0.0915 -0.4405
 5377TIP3   OH233317   2.891   3.666   0.534 -0.4103  0.7407  0.0826
 5377TIP3    H133318   2.953   3.594   0.546  1.1485  1.7358 -1.4328
 5377TIP3    H233319   2.830   3.633   0.468 -0.2314  0.4774  0.0440
 5378TIP3   OH233320   4.998   2.035   5.570 -0.2749  0.2757  0.1850
 5378TIP3    H133321   5.082   2.000   5.538 -0.6006  0.4663 -0.9386
 5378TIP3    H233322   4.932   1.983   5.523 -0.7716  1.4189 -0.4012
 5379TIP3   OH233323   0.629   5.881   2.222  0.3868 -0.4136 -0.3539
 5379TIP3    H133324   0.700   5.822   2.248 -0.0589 -0.1764  1.6009
 5379TIP3    H233325   0.550   5.827   2.229  0.3389 -0.8615 -3.1083
 5380TIP3   OH233326   3.013   5.420   7.731 -0.3827 -0.1901 -0.4286
 5380TIP3    H133327   2.933   5.372   7.712 -1.1817  0.2964  1.4528
 5380TIP3    H233328   3.081   5.352   7.736 -1.6734 -1.4797  3.3011
 5381TIP3   OH233329   0.285   5.572   6.574 -0.0055 -0.1436 -0.4117
 5381TIP3    H133330   0.263   5.492   6.621 -0.1556 -0.3786 -0.8742
 5381TIP3    H233331   0.208   5.591   6.520  0.1145  0.1872 -0.4720
 5382TIP3   OH233332   6.245   6.264   7.584 -0.1519 -0.2432 -0.2124
 5382TIP3    H133333   6.172   6.280   7.644 -0.2566 -1.3694 -0.0111
 5382TIP3    H233334   6.217   6.304   7.502 -2.4411 -3.1894 -1.0810
 5383TIP3   OH233335   1.231   5.139   6.253 -0.1429 -0.9312 -0.0087
 5383TIP3    H133336   1.223   5.067   6.315  0.2007 -0.4628  0.5853
 5383TIP3    H233337   1.313   5.121   6.206 -1.2551 -2.2011 -1.5329
 5384TIP3   OH233338   0.723   0.825   7.375 -0.1026 -0.0460  0.8094
 5384TIP3    H133339   0.693   0.806   7.464 -3.9233 -0.8969 -0.4611
 5384TIP3    H233340   0.709   0.919   7.364  1.3310  0.2578  1.3458
 5385TIP3   OH233341   6.355   1.837   7.742  0.3275 -0.1979 -0.3621
 5385TIP3    H133342   6.341   1.788   7.661 -0.0421  1.6298 -1.4613
 5385TIP3    H233343   6.271   1.831   7.789 -0.6216  1.4941 -1.7279
 5386TIP3   OH233344   2.059   2.224   1.724  0.0246  0.1868  0.1035
 5386TIP3    H133345   2.087   2.254   1.637  1.0100 -1.2408 -0.1047
 5386TIP3    H233346   2.101   2.139   1.735 -1.0221 -0.1907  1.5147
 5387TIP3   OH233347   2.142   4.216   1.755 -0.1168  0.4029 -0.0344
 5387TIP3    H133348   2.153   4.131   1.712  0.5425  0.7879 -0.6543
 5387TIP3    H233349   2.187   4.206   1.839 -0.4757 -0.0138  0.1145
 5388TIP3   OH233350   6.124   1.868   5.737 -0.3406 -0.2701 -0.0016
 5388TIP3    H133351   6.186   1.841   5.669  0.4072  1.1107  0.0882
 5388TIP3    H233352   6.170   1.852   5.820 -0.5313 -0.2675  0.1067
 5389TIP3   OH233353   4.548   5.688   7.124 -0.4292 -0.1339 -1.1796
 5389TIP3    H133354   4.476   5.662   7.067 -0.2867 -0.7210 -1.0950
 5389TIP3    H233355   4.513   5.679   7.213 -0.6896  0.8923 -1.1606
 5390TIP3   OH233356   4.437   3.286   6.988 -0.6266 -0.4263 -0.2752
 5390TIP3    H133357   4.345   3.273   6.965 -0.6815  0.3071 -0.4733
 5390TIP3    H233358   4.468   3.352   6.926 -0.3227  0.3002  0.6283
 5391TIP3   OH233359   3.951   3.355   1.267  0.2934 -0.2066  0.1072
 5391TIP3    H133360   3.921   3.273   1.307  0.5845 -0.4899 -0.2540
 5391TIP3    H233361   4.045   3.358   1.283  0.2580  0.1390  0.2630
 5392TIP3   OH233362   4.585   1.612   1.099 -0.5957 -0.0484 -0.1488
 5392TIP3    H133363   4.520   1.599   1.168 -0.3959 -1.1161 -0.1425
 5392TIP3    H233364   4.669   1.610   1.145 -0.5282  0.7465 -0.2328
 5393TIP3   OH233365   6.267   0.380   6.503 -0.6313 -0.6535  0.6012
 5393TIP3    H133366   6.289   0.432   6.581 -1.6995 -1.2859  1.3545
 5393TIP3    H233367   6.342   0.321   6.493 -0.3743 -0.4071  1.0136
 5394TIP3   OH233368   2.083   4.872   0.131 -0.2565  0.4591  0.2875
 5394TIP3    H133369   2.023   4.927   0.082 -0.1864 -0.5618 -0.9984
 5394TIP3    H233370   2.169   4.911   0.118 -0.1418 -0.1799 -1.0092
 5395TIP3   OH233371   5.446   0.999   2.021 -0.1592 -0.4505 -0.1802
 5395TIP3    H133372   5.372   1.002   2.082 -0.0399 -0.6115 -0.0253
 5395TIP3    H233373   5.430   0.921   1.968  1.0402 -1.7938  1.3303
 5396TIP3   OH233374   4.319   1.390   0.469 -0.2170  0.0235 -0.5148
 5396TIP3    H133375   4.370   1.326   0.517 -0.0248 -0.7971 -1.7644
 5396TIP3    H233376   4.372   1.411   0.392 -0.0885  2.0050  0.0553
 5397TIP3   OH233377   3.590   3.400   2.109  0.1166  0.4078  0.4658
 5397TIP3    H133378   3.646   3.477   2.096  0.8255  0.2462  2.2105
 5397TIP3    H233379   3.581   3.394   2.204  0.9448 -2.2642  0.4453
 5398TIP3   OH233380   2.648   5.712   6.078 -0.3677  0.7359 -0.6984
 5398TIP3    H133381   2.710   5.641   6.090 -1.1306  0.0952 -0.4361
 5398TIP3    H233382   2.565   5.668   6.058 -0.4443  1.6031 -2.4804
 5399TIP3   OH233383   4.119   5.615   6.646  0.4484 -0.0988 -0.2235
 5399TIP3    H133384   4.026   5.623   6.666  0.4821 -0.3851  0.0419
 5399TIP3    H233385   4.126   5.638   6.553 -0.0592 -1.3027 -0.5752
 5400TIP3   OH233386   1.299   4.803   6.209  0.0635 -0.3192 -0.1624
 5400TIP3    H133387   1.290   4.855   6.129 -0.0221  0.2612  0.2180
 5400TIP3    H233388   1.387   4.824   6.241 -0.0830 -0.1714  0.1511
 5401TIP3   OH233389   1.954   1.781   5.045 -0.8977  0.3665 -0.0677
 5401TIP3    H133390   2.044   1.805   5.022 -1.2264  0.2451 -1.6488
 5401TIP3    H233391   1.958   1.686   5.060 -1.0658  0.0071 -2.0355
 5402TIP3   OH233392   4.929   4.820   0.222  0.0749 -0.6970  0.4424
 5402TIP3    H133393   4.955   4.912   0.220  1.0147 -0.9392  0.8980
 5402TIP3    H233394   4.904   4.801   0.131  1.2036 -0.3454  0.0322
 5403TIP3   OH233395   3.728   1.728   7.704  0.5192 -0.4836  0.0955
 5403TIP3    H133396   3.642   1.688   7.694  0.5762 -1.0592  1.6498
 5403TIP3    H233397   3.761   1.738   7.614 -1.0046 -0.5652 -0.4993
 5404TIP3   OH233398   1.230   6.450   1.659  0.1054  0.4617 -0.5297
 5404TIP3    H133399   1.246   6.529   1.711  0.5903  0.1241 -0.1514
 5404TIP3    H233400   1.254   6.378   1.718 -0.5627  0.0246 -0.7855
 5405TIP3   OH233401   1.548   2.210   0.978 -0.6185 -0.4190  0.0289
 5405TIP3    H133402   1.609   2.276   0.945  1.0582 -2.6666 -1.6266
 5405TIP3    H233403   1.466   2.228   0.932  0.0615  0.0067 -1.0570
 5406TIP3   OH233404   5.803   0.718   5.614  0.1034 -0.0515 -0.3541
 5406TIP3    H133405   5.795   0.806   5.650  0.1315 -0.4937  0.7731
 5406TIP3    H233406   5.734   0.667   5.657  1.1003 -0.9569  0.2372
 5407TIP3   OH233407   4.950   4.524   7.084  0.1636  0.0433 -0.4516
 5407TIP3    H133408   4.876   4.464   7.082  0.0898  0.0828  0.5551
 5407TIP3    H233409   5.020   4.475   7.128  0.2553  0.5153 -0.0627
 5408TIP3   OH233410   2.027   1.634   6.615  0.2078 -0.5689  0.4962
 5408TIP3    H133411   2.028   1.718   6.569  2.1687 -0.1319  1.2464
 5408TIP3    H233412   2.113   1.628   6.657 -0.1398 -2.6456  1.0373
 5409TIP3   OH233413   2.444   5.492   7.455  0.2089 -0.2163  0.1586
 5409TIP3    H133414   2.439   5.537   7.371 -0.5939 -0.4925  0.0587
 5409TIP3    H233415   2.441   5.563   7.520  2.4655  0.1426 -0.0325
 5410TIP3   OH233416   6.588   0.958   6.360 -0.1217 -0.4759  0.2505
 5410TIP3    H133417   6.607   0.899   6.286 -0.4725  1.4830 -1.5098
 5410TIP3    H233418   6.653   1.028   6.351 -1.7858  1.1170  0.2028
 5411TIP3   OH233419   1.615   1.355   0.906 -0.1559  0.2616 -0.0567
 5411TIP3    H133420   1.599   1.341   1.000 -1.9218  1.6723 -0.1061
 5411TIP3    H233421   1.578   1.277   0.864  1.2581 -0.7150  0.4032
 5412TIP3   OH233422   1.473   5.882   7.642 -0.1259 -0.8586  0.3727
 5412TIP3    H133423   1.425   5.961   7.618  1.1635 -0.7923 -2.3356
 5412TIP3    H233424   1.548   5.913   7.693  0.3398 -0.2917 -0.6255
 5413TIP3   OH233425   0.975   0.939   7.197 -0.8464  0.4570 -0.4021
 5413TIP3    H133426   1.050   0.910   7.248 -0.8704 -1.0509 -1.1355
 5413TIP3    H233427   0.914   0.865   7.201 -0.3740 -0.2602 -3.4641
 5414TIP3   OH233428   4.310   2.144   0.830  0.0335  0.2679 -0.1363
 5414TIP3    H133429   4.317   2.201   0.906 -1.6528  0.5787 -0.1769
 5414TIP3    H233430   4.281   2.060   0.866  0.4640  0.0409 -0.3103
 5415TIP3   OH233431   5.823   0.564   6.965 -0.1435 -0.0392  0.0111
 5415TIP3    H133432   5.849   0.650   6.933  2.0312 -0.3533  0.7415
 5415TIP3    H233433   5.900   0.508   6.949 -1.9597 -2.2389 -1.7483
 5416TIP3   OH233434   5.089   4.154   6.987 -0.1502  0.0732 -0.4907
 5416TIP3    H133435   5.106   4.062   7.007  1.7746  0.4499 -0.2259
 5416TIP3    H233436   5.023   4.180   7.051 -2.5226 -1.6697 -2.0320
 5417TIP3   OH233437   6.529   2.213   6.438  0.4406 -0.4105  0.7770
 5417TIP3    H133438   6.482   2.143   6.391  1.9921 -1.9994  1.4887
 5417TIP3    H233439   6.603   2.234   6.381  1.1887 -0.9052  1.5479
 5418TIP3   OH233440   4.307   5.642   6.992  0.4854  0.3565 -0.5390
 5418TIP3    H133441   4.295   5.547   6.988  1.5052  0.0526  1.7746
 5418TIP3    H233442   4.256   5.669   7.069  1.1074  1.5105 -0.5163
 5419TIP3   OH233443   0.932   0.400   0.339 -0.5702 -0.1448  0.0030
 5419TIP3    H133444   0.982   0.358   0.409  1.6018  1.1954 -0.6538
 5419TIP3    H233445   0.842   0.403   0.372  0.1632 -0.6461  2.1965
 5420TIP3   OH233446   3.524   2.407   2.137 -0.1949  0.0929  0.2778
 5420TIP3    H133447   3.573   2.326   2.149 -0.4546 -0.1952 -0.5146
 5420TIP3    H233448   3.444   2.395   2.188 -1.4942 -1.2944 -1.9242
 5421TIP3   OH233449   5.686   0.812   5.857 -0.2250  0.2533  0.4494
 5421TIP3    H133450   5.591   0.807   5.844 -0.2439  0.7016  0.3834
 5421TIP3    H233451   5.696   0.855   5.942 -0.0852  1.8806 -0.3444
 5422TIP3   OH233452   0.189   4.637   1.454 -0.4383 -0.2972  0.2128
 5422TIP3    H133453   0.132   4.714   1.455 -1.2432 -0.8638 -0.4927
 5422TIP3    H233454   0.222   4.632   1.365  0.7268  0.0051  0.6068
 5423TIP3   OH233455   6.322   2.881   2.078  0.2693 -0.7204  0.0128
 5423TIP3    H133456   6.411   2.845   2.082  0.2832 -0.7110 -0.2282
 5423TIP3    H233457   6.271   2.825   2.137  0.7000  0.0449  1.1551
 5424TIP3   OH233458   3.601   3.268   0.618  0.2542 -0.2039  0.1380
 5424TIP3    H133459   3.675   3.292   0.674 -0.5361 -0.3517  1.2833
 5424TIP3    H233460   3.541   3.221   0.677 -0.6299 -0.3059 -0.8233
 5425TIP3   OH233461   0.627   5.838   6.628 -0.5130  0.3125 -0.6780
 5425TIP3    H133462   0.641   5.932   6.633 -0.2244  0.2852 -0.9230
 5425TIP3    H233463   0.658   5.814   6.541  0.1665 -0.1273 -0.3264
 5426TIP3   OH233464   3.341   1.886   1.173 -0.4004 -0.6609  0.2857
 5426TIP3    H133465   3.357   1.793   1.189  0.9785 -0.5186 -0.1299
 5426TIP3    H233466   3.424   1.928   1.193 -1.0014  0.4878  0.4214
 5427TIP3   OH233467   3.254   4.609   1.462  0.4548  0.0209 -0.5559
 5427TIP3    H133468   3.263   4.605   1.366 -0.6472 -1.5889 -0.6261
 5427TIP3    H233469   3.195   4.537   1.484 -0.5233  1.2829  1.2098
 5428TIP3   OH233470   5.390   5.086   1.504  0.1424 -0.1613  0.0906
 5428TIP3    H133471   5.351   5.105   1.589 -0.8788 -0.7493 -0.2405
 5428TIP3    H233472   5.387   4.991   1.496 -0.4751 -0.0672 -0.9258
 5429TIP3   OH233473   3.597   2.650   0.860 -0.2561  0.6216 -0.0407
 5429TIP3    H133474   3.661   2.583   0.883 -0.1640  1.1552  1.3417
 5429TIP3    H233475   3.520   2.629   0.914 -0.7674  0.7710 -0.6933
 5430TIP3   OH233476   2.539   3.472   1.393 -0.2368  0.1677 -0.1109
 5430TIP3    H133477   2.504   3.536   1.454  0.8422  0.8884 -0.2084
 5430TIP3    H233478   2.537   3.388   1.440  0.3599  0.6665  0.8388
 5431TIP3   OH233479   6.472   6.387   0.194  0.6084 -0.1886 -0.0834
 5431TIP3    H133480   6.485   6.302   0.152  0.1383  0.4963 -1.7284
 5431TIP3    H233481   6.378   6.402   0.189  0.5522 -0.0230  1.1697
 5432TIP3   OH233482   4.215   1.114   7.042 -0.0117  0.1045 -0.1250
 5432TIP3    H133483   4.140   1.147   6.993 -0.1602  0.4738  0.3379
 5432TIP3    H233484   4.186   1.112   7.133  0.2652 -0.5583 -0.0435
 5433TIP3   OH233485   1.302   0.336   0.219  0.0640 -0.0506  0.4589
 5433TIP3    H133486   1.390   0.307   0.242  1.7683  2.2236 -2.4710
 5433TIP3    H233487   1.285   0.409   0.279  2.1965  2.3636 -1.6302
 5434TIP3   OH233488   4.133   3.461   7.206 -0.6268  0.0447  0.1634
 5434TIP3    H133489   4.167   3.381   7.248 -2.1113  0.2377  1.8729
 5434TIP3    H233490   4.142   3.529   7.273  0.0510  1.1852 -1.0569
 5435TIP3   OH233491   0.576   2.388   7.331 -0.4653 -0.2408  0.2259
 5435TIP3    H133492   0.554   2.391   7.424  0.1652 -1.7411  0.4505
 5435TIP3    H233493   0.672   2.383   7.329 -0.5022 -0.9571 -0.4595
 5436TIP3   OH233494   3.796   4.036   0.000 -0.2641 -0.6100 -0.0230
 5436TIP3    H133495   3.863   4.037   0.068  1.2475  0.5729 -1.4288
 5436TIP3    H233496   3.811   3.954  -0.048  1.1951  0.3020 -1.2128
 5437TIP3   OH233497   3.694   5.597   1.157 -0.6075  0.3164 -0.3133
 5437TIP3    H133498   3.663   5.525   1.211 -0.6787  0.3128 -0.3582
 5437TIP3    H233499   3.716   5.666   1.219 -0.4823  0.2350 -0.2665
 5438TIP3   OH233500   3.212   5.736   1.317 -0.2029  0.1745  0.2003
 5438TIP3    H133501   3.243   5.679   1.388  0.4688 -0.5481 -0.6557
 5438TIP3    H233502   3.229   5.687   1.237 -3.0724 -0.0292 -0.3873
 5439TIP3   OH233503   6.179   2.862   7.341 -0.1897  0.5094  0.0302
 5439TIP3    H133504   6.240   2.915   7.392 -0.9275  2.1746 -0.7458
 5439TIP3    H233505   6.103   2.851   7.399 -0.3520  0.9682 -0.0965
 5440TIP3   OH233506   3.183   3.888   6.412  0.7891  0.3861  0.0327
 5440TIP3    H133507   3.204   3.800   6.444  0.2303  0.1798 -0.1568
 5440TIP3    H233508   3.266   3.922   6.378  1.0000 -0.0776  0.0826
 5441TIP3   OH233509   5.832   2.780   0.443  0.1921  0.2223 -0.2265
 5441TIP3    H133510   5.821   2.727   0.364 -1.5364  1.2219 -0.7165
 5441TIP3    H233511   5.831   2.870   0.412 -0.6423  0.6392  0.9303
 5442TIP3   OH233512   1.299   5.484   2.130  0.5084 -0.4314  0.0695
 5442TIP3    H133513   1.284   5.390   2.144  0.6001 -0.8139 -2.0640
 5442TIP3    H233514   1.393   5.495   2.147  1.4110 -1.5991 -3.4089
 5443TIP3   OH233515   2.605   0.469   1.414 -0.0316 -0.0091 -0.0956
 5443TIP3    H133516   2.590   0.526   1.338  0.6553 -0.8224 -0.8672
 5443TIP3    H233517   2.518   0.434   1.434  0.1608 -2.3785 -2.6658
 5444TIP3   OH233518   6.565   1.025   6.880  0.8187 -0.1340 -0.6311
 5444TIP3    H133519   6.526   0.940   6.902 -2.0942  0.4179 -3.0619
 5444TIP3    H233520   6.592   1.015   6.789  0.7846  1.4338 -0.8313
 5445TIP3   OH233521   5.823   4.799   6.357 -0.1539  0.0729  0.4033
 5445TIP3    H133522   5.757   4.819   6.424  0.2704 -0.4556  0.9855
 5445TIP3    H233523   5.774   4.752   6.289 -0.4434 -0.0334  0.6819
 5446TIP3   OH233524   3.148   4.183   6.688 -0.3740 -0.4109  0.1191
 5446TIP3    H133525   3.076   4.149   6.635  0.0218  0.5392 -1.0613
 5446TIP3    H233526   3.187   4.105   6.727 -0.5158 -1.1850 -1.2063
 5447TIP3   OH233527   3.460   4.907   2.411  0.1943  0.0121  0.5788
 5447TIP3    H133528   3.431   4.999   2.413  2.9783  0.9810  1.9761
 5447TIP3    H233529   3.505   4.899   2.327 -1.0924 -0.4917 -0.0898
 5448TIP3   OH233530   3.509   1.445   5.877  0.1611  0.2842  0.2829
 5448TIP3    H133531   3.461   1.514   5.923 -1.4826  0.1705 -1.1669
 5448TIP3    H233532   3.544   1.489   5.799  1.9017  0.1957  0.9573
 5449TIP3   OH233533   1.498   6.252   6.963 -0.1821  0.3744  0.4059
 5449TIP3    H133534   1.423   6.200   6.990  0.3897 -0.0169  1.2925
 5449TIP3    H233535   1.567   6.188   6.948 -0.1929  0.6787 -1.0267
 5450TIP3   OH233536   0.620   2.649   1.248  0.5168 -0.3387 -0.5807
 5450TIP3    H133537   0.619   2.745   1.245 -0.3120 -0.2764  0.7122
 5450TIP3    H233538   0.711   2.627   1.265  0.2642  0.4115  2.2789
 5451TIP3   OH233539   4.563   4.843   7.243  0.3925 -0.5328 -0.6554
 5451TIP3    H133540   4.639   4.888   7.206  1.5524 -0.2625  1.8540
 5451TIP3    H233541   4.590   4.751   7.246  2.0742 -0.0992  3.0973
 5452TIP3   OH233542   5.954   4.085   0.179 -0.0152  0.3522 -0.4512
 5452TIP3    H133543   5.909   4.091   0.263 -1.3430  0.4891 -1.1471
 5452TIP3    H233544   5.903   4.020   0.129  1.0755 -0.1399 -0.9626
 5453TIP3   OH233545   4.280   4.644   1.097  0.7442  0.2768 -0.0104
 5453TIP3    H133546   4.187   4.637   1.078  0.1889  1.2708  2.0861
 5453TIP3    H233547   4.323   4.610   1.018 -1.3525  0.6967 -1.4230
 5454TIP3   OH233548   0.057   4.885   1.423 -0.2958  0.6061  0.0343
 5454TIP3    H133549   0.087   4.912   1.510 -0.4966  1.8733 -0.2785
 5454TIP3    H233550  -0.029   4.926   1.413 -0.3907  0.2444 -0.6532
 5455TIP3   OH233551   3.136   3.926   6.016  0.0609  0.1636  0.3196
 5455TIP3    H133552   3.125   3.987   6.089  3.9698  0.1665  1.1320
 5455TIP3    H233553   3.148   3.982   5.940 -0.8577  0.2547  0.2372
 5456TIP3   OH233554   3.605   0.486   0.385 -0.0539 -0.0726 -0.0221
 5456TIP3    H133555   3.600   0.517   0.475  0.0130  0.7991 -0.3106
 5456TIP3    H233556   3.522   0.442   0.370  0.1175 -0.6242  0.6063
 5457TIP3   OH233557   5.434   2.056   5.974 -0.5935 -0.1970 -0.0289
 5457TIP3    H133558   5.496   1.984   5.986 -1.9908 -0.9777  3.4388
 5457TIP3    H233559   5.476   2.112   5.908  3.1561 -1.3238  1.1524
 5458TIP3   OH233560   1.969   1.511   5.056 -0.4314 -0.3106 -0.6889
 5458TIP3    H133561   1.910   1.436   5.050  1.1767 -1.9834  2.0831
 5458TIP3    H233562   2.048   1.484   5.009  1.6944 -2.2584  3.4626
 5459TIP3   OH233563   4.569   3.298   7.535  0.0534  0.4783 -0.5703
 5459TIP3    H133564   4.551   3.324   7.445 -0.1117  0.7218 -0.4659
 5459TIP3    H233565   4.664   3.303   7.543 -0.0020  1.3546 -0.4558
 5460TIP3   OH233566   5.800   0.727   6.322 -0.3107  0.1866  0.8716
 5460TIP3    H133567   5.710   0.743   6.349  0.0186  1.3036  1.3480
 5460TIP3    H233568   5.852   0.794   6.366  0.5679  0.5092 -0.5667
 5461TIP3   OH233569   0.188   1.392   7.346  0.3732  0.1902  0.0474
 5461TIP3    H133570   0.245   1.328   7.389  3.6889  1.0817 -2.5856
 5461TIP3    H233571   0.189   1.467   7.405  0.2332 -0.5314  0.9953
 5462TIP3   OH233572   1.930   0.884   6.804  0.2303  0.4818 -0.5299
 5462TIP3    H133573   1.985   0.836   6.743  0.8021  0.3767  0.0530
 5462TIP3    H233574   1.939   0.976   6.777  2.7661  0.7979  1.0847
 5463TIP3   OH233575   0.234   2.078   0.839 -0.1582  0.2005 -0.9158
 5463TIP3    H133576   0.204   2.130   0.914  2.0093 -1.5273  1.3317
 5463TIP3    H233577   0.200   1.990   0.855 -0.2192 -0.0618 -2.3464
 5464TIP3   OH233578   4.557   0.034   7.540  0.0006  0.2970 -0.5047
 5464TIP3    H133579   4.650   0.055   7.551  0.1681 -0.5502 -0.2531
 5464TIP3    H233580   4.529   0.004   7.627 -0.5064  0.5250 -0.5845
 5465TIP3   OH233581   0.754   1.477   1.498  0.0482 -0.3968 -0.1337
 5465TIP3    H133582   0.737   1.551   1.558 -0.7283 -1.1363  0.5911
 5465TIP3    H233583   0.689   1.488   1.429  0.5973  0.1602 -0.5688
 5466TIP3   OH233584   5.100   0.143   6.965 -0.0281 -0.4972  0.3088
 5466TIP3    H133585   5.065   0.232   6.960  0.2861 -0.3804  0.1285
 5466TIP3    H233586   5.096   0.121   7.058  0.8213  0.0934  0.5080
 5467TIP3   OH233587   0.329   6.247   6.487 -0.1916  0.5313  0.6743
 5467TIP3    H133588   0.277   6.174   6.455  0.9966  0.2108 -0.6320
 5467TIP3    H233589   0.351   6.224   6.577  1.4681 -1.5437 -0.1785
 5468TIP3   OH233590   6.380   3.903   0.625 -0.2124 -0.1019 -0.4438
 5468TIP3    H133591   6.356   3.811   0.623  0.7710 -0.4919  2.2915
 5468TIP3    H233592   6.474   3.904   0.607 -0.0824  0.2817  0.2088
 5469TIP3   OH233593   6.457   5.013   7.595  0.7046  0.0372 -0.0963
 5469TIP3    H133594   6.448   5.089   7.653  0.1882  1.5727 -2.0967
 5469TIP3    H233595   6.373   5.007   7.550  0.7900 -1.6695 -0.0921
 5470TIP3   OH233596   1.301   2.437   6.384 -0.0181  0.0475  0.2358
 5470TIP3    H133597   1.312   2.352   6.427  1.3593 -0.8036 -1.6689
 5470TIP3    H233598   1.339   2.500   6.446  2.0953 -1.1614  0.2515
 5471TIP3   OH233599   0.951   4.712   1.673  0.0993 -0.4492 -0.1949
 5471TIP3    H133600   0.985   4.673   1.752  1.1581 -1.5702 -1.1717
 5471TIP3    H233601   1.025   4.759   1.634 -0.1365 -0.7252 -1.0117
 5472TIP3   OH233602   6.297   6.399   6.853 -0.4271  0.7116  0.6891
 5472TIP3    H133603   6.297   6.323   6.795 -1.4678  1.4726 -0.3493
 5472TIP3    H233604   6.358   6.460   6.813 -1.9531  1.6812 -0.2633
 5473TIP3   OH233605   6.578   2.107   7.629  0.4654  0.4933  0.4036
 5473TIP3    H133606   6.647   2.055   7.671 -1.7092 -4.8460 -1.7211
 5473TIP3    H233607   6.508   2.112   7.694 -0.0212 -1.0551  0.0340
 5474TIP3   OH233608   1.520   3.977   1.857  0.0409  0.7340  0.4803
 5474TIP3    H133609   1.552   3.917   1.789 -0.1244  0.6864  0.4442
 5474TIP3    H233610   1.432   3.946   1.877 -0.2964  1.3617 -0.0039
 5475TIP3   OH233611   0.619   5.215   1.628  0.1716 -0.3009 -0.1779
 5475TIP3    H133612   0.613   5.281   1.558  2.2739  0.6923  0.5053
 5475TIP3    H233613   0.633   5.132   1.582 -2.6046 -0.4065 -1.0592
 5476TIP3   OH233614   6.527   1.269   6.562 -0.1904 -0.2951  0.0306
 5476TIP3    H133615   6.596   1.310   6.509 -0.4814  0.0363 -0.0953
 5476TIP3    H233616   6.502   1.336   6.625 -2.7710  0.8787 -2.0633
 5477TIP3   OH233617   3.183   0.912   6.220 -0.3447 -0.3730 -0.3318
 5477TIP3    H133618   3.109   0.917   6.160 -0.4113  0.4393 -0.1824
 5477TIP3    H233619   3.256   0.952   6.172 -0.0305 -1.0306 -0.4215
 5478TIP3   OH233620   2.032   6.053   2.201 -0.3480 -0.3892 -0.5454
 5478TIP3    H133621   2.030   6.142   2.235  0.8599 -0.3445 -0.5242
 5478TIP3    H233622   2.103   6.053   2.137 -0.4183 -1.2980 -0.6476
 5479TIP3   OH233623   5.597   1.539   0.730 -0.1458  0.1630 -0.5328
 5479TIP3    H133624   5.610   1.449   0.698 -0.8901 -1.1336  2.4006
 5479TIP3    H233625   5.683   1.566   0.761 -0.2829 -0.3976  0.4033
 5480TIP3   OH233626   5.936   2.164   1.687  0.5663 -0.2042 -0.1625
 5480TIP3    H133627   5.955   2.071   1.672 -1.3535 -0.4114 -1.7212
 5480TIP3    H233628   6.007   2.210   1.644  0.4770 -0.9550 -1.1437
 5481TIP3   OH233629   3.154   0.167   5.465 -0.2792 -0.0891 -0.5562
 5481TIP3    H133630   3.244   0.189   5.490 -0.5503  2.3439 -1.5025
 5481TIP3    H233631   3.126   0.238   5.409 -2.3897 -1.4593 -1.3697
 5482TIP3   OH233632   5.487   2.477   1.847  0.0789 -0.4505 -0.0398
 5482TIP3    H133633   5.517   2.468   1.938  0.0045 -0.9892 -0.0679
 5482TIP3    H233634   5.396   2.504   1.855 -0.1428 -1.1992  0.0545
 5483TIP3   OH233635   1.538   6.080   5.369 -0.2272  0.5105 -0.8634
 5483TIP3    H133636   1.534   6.071   5.465 -2.1631  0.7185 -0.8867
 5483TIP3    H233637   1.511   5.995   5.336 -4.6577  1.7932 -1.1260
 5484TIP3   OH233638   2.719   2.413   0.493  0.8892 -0.1294  0.0912
 5484TIP3    H133639   2.733   2.324   0.459 -1.6804 -0.6335  0.0913
 5484TIP3    H233640   2.663   2.455   0.427 -0.8701  0.2409  1.7189
 5485TIP3   OH233641   4.203   5.331   6.941  0.3997  0.8110  0.5145
 5485TIP3    H133642   4.138   5.285   6.994 -0.6486  2.1319  0.4219
 5485TIP3    H233643   4.182   5.308   6.851  0.0702  1.2123  0.4867
 5486TIP3   OH233644   0.965   5.064   1.294  0.1288 -0.2421 -0.0456
 5486TIP3    H133645   0.893   5.005   1.318 -1.2664  0.6786 -1.7621
 5486TIP3    H233646   0.996   5.031   1.209 -0.3343  1.1601 -0.7904
 5487TIP3   OH233647   3.208   0.515   5.702 -0.5010 -0.0010  0.1203
 5487TIP3    H133648   3.266   0.572   5.651  1.0552 -0.9437  0.7778
 5487TIP3    H233649   3.156   0.576   5.754  0.9409  0.8714  0.6187
 5488TIP3   OH233650   2.478   0.378   6.103  0.1883 -0.6609  0.4829
 5488TIP3    H133651   2.524   0.336   6.030  0.4752  1.7051 -0.8156
 5488TIP3    H233652   2.385   0.364   6.085  0.2889 -2.1270  1.0009
 5489TIP3   OH233653   1.804   1.174   0.616  0.4418  0.5139 -0.3348
 5489TIP3    H133654   1.838   1.117   0.685 -1.7666 -0.8754 -0.2816
 5489TIP3    H233655   1.861   1.158   0.541  1.2645 -0.0007  0.3812
 5490TIP3   OH233656   3.178   5.360   6.764  0.5055  0.1109 -0.0656
 5490TIP3    H133657   3.086   5.383   6.773  0.1721 -0.7153 -1.2011
 5490TIP3    H233658   3.224   5.444   6.761 -0.1557  0.5158  0.9327
 5491TIP3   OH233659   0.671   5.343   0.654  0.0083 -0.3417 -0.2072
 5491TIP3    H133660   0.601   5.383   0.706  0.5905  0.2392  0.1413
 5491TIP3    H233661   0.644   5.357   0.563  0.8582  2.1458 -0.1485
 5492TIP3   OH233662   1.685   6.483   0.073 -0.0743 -0.4465 -0.0367
 5492TIP3    H133663   1.589   6.474   0.067 -0.4554  1.2477  2.0503
 5492TIP3    H233664   1.707   6.547   0.006 -0.8291  1.1065  1.1370
 5493TIP3   OH233665   1.715   4.457   7.254  0.4258  0.0608  0.3235
 5493TIP3    H133666   1.648   4.403   7.295  1.0261  0.2969  1.6323
 5493TIP3    H233667   1.680   4.475   7.166 -0.4161 -1.2526  0.3702
 5494TIP3   OH233668   2.961   3.202   0.222  0.4592 -1.1131  0.2366
 5494TIP3    H133669   2.941   3.141   0.293  0.9531 -2.6611 -0.9026
 5494TIP3    H233670   3.054   3.220   0.231  0.4199 -0.9220  0.2664
 5495TIP3   OH233671   1.345   4.281   6.212  0.0098 -0.1261  0.1157
 5495TIP3    H133672   1.350   4.341   6.286  0.2040  0.8467 -0.6595
 5495TIP3    H233673   1.251   4.265   6.200  0.0013 -0.6622  0.8496
 5496TIP3   OH233674   4.427   4.809   7.503 -0.3016 -0.1225 -0.0974
 5496TIP3    H133675   4.506   4.794   7.451 -0.6370 -0.2231 -0.5774
 5496TIP3    H233676   4.355   4.800   7.441 -0.7174 -0.4548  0.4242
 5497TIP3   OH233677   3.072   2.790   7.600 -0.5050  0.4397 -0.2527
 5497TIP3    H133678   3.008   2.861   7.589 -0.3485  0.5555 -0.4293
 5497TIP3    H233679   3.150   2.834   7.636 -0.3210  0.4028 -0.6011
 5498TIP3   OH233680   0.417   5.582   5.941  0.2720 -0.0081  0.2927
 5498TIP3    H133681   0.355   5.542   5.880  1.0809 -0.7841 -0.0487
 5498TIP3    H233682   0.487   5.614   5.885  0.5613  0.1427  0.7392
 5499TIP3   OH233683   4.143   0.610   7.548 -0.3748  0.7086 -0.4414
 5499TIP3    H133684   4.219   0.638   7.497  1.3460 -0.8460  1.1370
 5499TIP3    H233685   4.134   0.675   7.617 -0.3444  0.7733 -0.4982
 5500TIP3   OH233686   1.485   2.413   2.655 -1.1420  0.6215  0.2075
 5500TIP3    H133687   1.559   2.454   2.612 -0.9170  0.1180  0.1063
 5500TIP3    H233688   1.408   2.444   2.606 -0.7137 -2.8321 -3.0908
 5501TIP3   OH233689   2.345   3.607   2.608  0.0502 -0.3058 -0.0425
 5501TIP3    H133690   2.277   3.541   2.608  0.0125 -0.2930 -1.4131
 5501TIP3    H233691   2.423   3.561   2.576 -0.1693  0.4453 -1.8064
 5502TIP3   OH233692   0.301   2.509   1.052 -0.6148 -0.2441 -0.3701
 5502TIP3    H133693   0.232   2.511   1.119  0.9931 -4.4145  1.8015
 5502TIP3    H233694   0.253   2.503   0.970 -2.9362 -1.6369  0.9476
 5503TIP3   OH233695   0.005   2.776   0.277 -0.2590 -0.2434 -0.1900
 5503TIP3    H133696   0.056   2.857   0.286 -0.0680 -0.4983  1.2710
 5503TIP3    H233697  -0.057   2.795   0.208  1.5968  0.1890 -1.8376
 5504TIP3   OH233698   3.295   3.528   5.840 -0.3641 -1.0854 -0.5745
 5504TIP3    H133699   3.283   3.540   5.745  0.7170  1.3231 -0.4906
 5504TIP3    H233700   3.248   3.602   5.879 -0.1400 -1.6114  0.7307
 5505TIP3   OH233701   3.470   2.108   6.970 -0.3022 -0.0087 -0.6777
 5505TIP3    H133702   3.450   2.034   7.028 -2.3096  1.0932  0.1658
 5505TIP3    H233703   3.386   2.153   6.960  0.7703  1.9495 -1.4596
 5506TIP3   OH233704   1.157   3.478   1.210  0.2274  0.3243 -0.2132
 5506TIP3    H133705   1.223   3.510   1.271 -1.4610  2.2305  0.7408
 5506TIP3    H233706   1.189   3.505   1.124  2.4591 -2.0914 -0.2501
 5507TIP3   OH233707   4.915   1.238   0.580 -0.2584 -0.0314 -0.4033
 5507TIP3    H133708   4.858   1.177   0.628  0.2189  0.0863  0.3298
 5507TIP3    H233709   4.869   1.252   0.497 -1.8879  0.9173  0.5875
 5508TIP3   OH233710   3.565   5.151   7.014 -0.4789  0.1157  0.6555
 5508TIP3    H133711   3.471   5.150   6.997 -0.3770  1.3483 -0.1344
 5508TIP3    H233712   3.601   5.087   6.953 -0.9472 -1.8440  2.3040
 5509TIP3   OH233713   4.096   2.806   7.243 -0.1138  0.3990  0.2927
 5509TIP3    H133714   4.020   2.858   7.270 -0.8648 -1.0148  1.0716
 5509TIP3    H233715   4.061   2.717   7.236  0.8968  0.1078 -1.9127
 5510TIP3   OH233716   6.066   0.742   6.896  0.4238 -0.3856  0.5554
 5510TIP3    H133717   6.145   0.693   6.871  0.2541 -0.3597 -0.0508
 5510TIP3    H233718   6.088   0.834   6.881  0.0191 -0.4275 -0.4011
 5511TIP3   OH233719   3.142   2.926   7.268  0.0781  0.0381  0.6191
 5511TIP3    H133720   3.143   2.875   7.188  0.1479  1.5918 -0.4178
 5511TIP3    H233721   3.230   2.917   7.304  1.8695  3.3544 -2.2546
 5512TIP3   OH233722   3.144   0.120   1.071  0.9730  1.0432  0.0191
 5512TIP3    H133723   3.208   0.160   1.131  2.1107 -0.9810  0.2414
 5512TIP3    H233724   3.196   0.066   1.012 -0.4213  0.3775 -0.6602
 5513TIP3   OH233725   5.451   2.301   6.756  0.2590 -0.8524  0.0856
 5513TIP3    H133726   5.416   2.372   6.809  0.3852 -1.2185  0.6752
 5513TIP3    H233727   5.546   2.313   6.761  0.2484  0.0468 -1.3787
 5514TIP3   OH233728   1.239   1.928   0.349  0.3343  0.6657 -0.4045
 5514TIP3    H133729   1.329   1.897   0.358 -0.2942 -0.8289  1.8958
 5514TIP3    H233730   1.192   1.854   0.311 -0.4382  0.2019  1.3238
 5515TIP3   OH233731   0.048   5.995   0.605 -0.0561 -0.1139  0.5275
 5515TIP3    H133732   0.064   5.979   0.512  0.0357  0.4669  0.4371
 5515TIP3    H233733   0.134   5.989   0.646  0.2847  1.8406  0.2205
 5516TIP3   OH233734   1.346   2.223   6.060 -0.2248 -0.2995 -0.0332
 5516TIP3    H133735   1.353   2.277   5.981 -2.1094  1.0587  0.6597
 5516TIP3    H233736   1.318   2.137   6.027  2.0596 -0.7101 -1.0758
 5517TIP3   OH233737   0.251   0.781   1.141 -0.8133  0.8472  0.0553
 5517TIP3    H133738   0.167   0.827   1.136 -0.6431  1.3197  1.2557
 5517TIP3    H233739   0.300   0.811   1.065 -0.9695  2.1332  0.4401
 5518TIP3   OH233740   2.037   2.068   0.778 -0.3716 -0.4166 -1.0221
 5518TIP3    H133741   1.979   1.998   0.750 -2.5597  1.1926 -0.8007
 5518TIP3    H233742   2.020   2.078   0.871 -1.5619  1.5492 -1.3645
 5519TIP3   OH233743   3.253   2.360   7.425 -0.3429  0.0749  0.1811
 5519TIP3    H133744   3.236   2.454   7.420 -0.8115 -0.0890 -3.3379
 5519TIP3    H233745   3.168   2.319   7.409  0.4398 -0.8782 -1.7957
 5520TIP3   OH233746   0.890   3.513   6.734  0.3202 -0.0171 -0.4781
 5520TIP3    H133747   0.796   3.493   6.736  0.0438  1.0703  2.2927
 5520TIP3    H233748   0.932   3.429   6.715 -1.1360 -1.3021  1.5753
 5521TIP3   OH233749   2.476   6.310   7.034 -0.6690  0.2295  0.2243
 5521TIP3    H133750   2.479   6.339   6.943 -2.9081  0.8822  0.2833
 5521TIP3    H233751   2.566   6.314   7.064  0.0352  0.5944 -1.7799
 5522TIP3   OH233752   3.381   5.158   2.374 -0.6870 -0.1492 -0.2941
 5522TIP3    H133753   3.333   5.240   2.386 -0.0868  0.1174  0.4338
 5522TIP3    H233754   3.466   5.185   2.338 -0.9804 -0.5905 -1.3545
 5523TIP3   OH233755   3.653   0.904   6.495 -0.2532 -0.5023  0.2708
 5523TIP3    H133756   3.615   0.831   6.543  0.9578 -0.2395  1.7063
 5523TIP3    H233757   3.578   0.950   6.457 -1.1274 -1.6125  0.6165
 5524TIP3   OH233758   3.272   5.375   0.159  0.0182 -0.2723  0.3460
 5524TIP3    H133759   3.252   5.318   0.086  1.7125 -0.4854  0.0151
 5524TIP3    H233760   3.186   5.405   0.191 -0.7997 -1.4765 -0.6613
 5525TIP3   OH233761   5.732   2.550   1.729  0.2547 -0.7373  0.2626
 5525TIP3    H133762   5.712   2.633   1.772 -1.0353  0.2842 -2.1320
 5525TIP3    H233763   5.655   2.496   1.744 -0.4601 -0.1638 -1.1472
 5526TIP3   OH233764   4.600   0.074   0.380  0.1366  0.9483  0.4501
 5526TIP3    H133765   4.614  -0.015   0.350 -1.6988  1.2710 -1.5763
 5526TIP3    H233766   4.590   0.066   0.475  2.8887 -0.5560  0.7116
 5527TIP3   OH233767   1.960   0.366   0.028  0.3031 -0.5096 -0.2038
 5527TIP3    H133768   2.009   0.395  -0.050 -0.6613 -1.4295 -1.1855
 5527TIP3    H233769   1.879   0.416   0.025  1.0053  0.8117  1.2730
 5528TIP3   OH233770   5.305   0.461   0.978 -0.3089 -0.3563 -0.0219
 5528TIP3    H133771   5.364   0.436   1.048  0.7452 -1.1981 -1.1600
 5528TIP3    H233772   5.322   0.554   0.964 -0.8742 -0.0643  1.1227
 5529TIP3   OH233773   3.626   4.676   6.873 -0.5862 -0.6079 -0.0770
 5529TIP3    H133774   3.715   4.641   6.878  0.2607  0.8682 -2.7554
 5529TIP3    H233775   3.574   4.605   6.837 -0.6081 -1.5759  1.7681
 5530TIP3   OH233776   4.397   2.563   5.754 -0.4603  0.3072 -0.3624
 5530TIP3    H133777   4.341   2.636   5.779 -0.7654 -0.4664  1.3195
 5530TIP3    H233778   4.486   2.593   5.772 -0.6883 -0.3913  2.2796
 5531TIP3   OH233779   2.758   4.381   6.824  0.0682  0.2143  0.5841
 5531TIP3    H133780   2.727   4.455   6.876  2.1395  1.2675  0.4256
 5531TIP3    H233781   2.807   4.327   6.885 -0.5612 -0.5167  0.4681
 5532TIP3   OH233782   3.426   6.521   7.748  0.0007  0.2327 -0.0209
 5532TIP3    H133783   3.361   6.500   7.680 -0.0314  0.4192 -0.0489
 5532TIP3    H233784   3.376   6.517   7.830  0.1617 -0.5195  0.0416
 5533TIP3   OH233785   5.695   4.546   0.008 -0.4112 -0.2085 -0.3718
 5533TIP3    H133786   5.708   4.455   0.037 -2.3571  0.1102  1.8039
 5533TIP3    H233787   5.603   4.550  -0.017 -0.7072  1.4525  0.8433
 5534TIP3   OH233788   3.560   4.946   0.930 -0.0099 -0.0104 -0.0990
 5534TIP3    H133789   3.495   4.982   0.990 -0.0937 -0.3213  0.0003
 5534TIP3    H233790   3.509   4.890   0.871  0.2316 -0.6051  0.2567
 5535TIP3   OH233791   6.028   0.280   7.174  0.0562 -0.3143 -0.1199
 5535TIP3    H133792   5.972   0.270   7.097  0.1011 -0.0505 -0.1876
 5535TIP3    H233793   5.985   0.347   7.227  0.2341 -0.2096 -0.1060
 5536TIP3   OH233794   0.128   5.195   1.939 -0.6181  0.4082 -0.3702
 5536TIP3    H133795   0.209   5.244   1.956  0.3714 -1.4959  0.8331
 5536TIP3    H233796   0.058   5.256   1.959  0.5439  0.9740  2.5339
 5537TIP3   OH233797   3.855   2.614   2.919  0.8274 -0.1089 -0.5033
 5537TIP3    H133798   3.897   2.570   2.845  1.0606 -0.8829  0.0788
 5537TIP3    H233799   3.911   2.688   2.939  0.7122  0.1621 -1.1594
 5538TIP3   OH233800   5.585   0.432   6.916 -0.0293 -0.4565 -0.2473
 5538TIP3    H133801   5.535   0.416   6.996  0.3936 -0.1179  0.0876
 5538TIP3    H233802   5.660   0.483   6.944 -0.5357  0.7946 -1.0447
 5539TIP3   OH233803   0.938   5.349   0.661  0.0790  0.3672 -0.6486
 5539TIP3    H133804   0.843   5.356   0.665  0.0572 -0.2735  0.5478
 5539TIP3    H233805   0.964   5.407   0.589 -1.2995 -0.3051 -1.7392
 5540TIP3   OH233806   5.032   2.793   7.707  0.3465 -0.5433  0.3190
 5540TIP3    H133807   5.069   2.793   7.619  0.8996 -2.9612  0.4871
 5540TIP3    H233808   4.991   2.879   7.716  3.2438  1.1246 -0.9955
 5541TIP3   OH233809   4.333   1.731   7.032 -0.1358 -0.1541 -0.2881
 5541TIP3    H133810   4.242   1.704   7.043  0.1419 -0.9078  0.2473
 5541TIP3    H233811   4.343   1.745   6.938 -0.5101 -1.1909 -0.4932
 5542TIP3   OH233812   0.653   0.108   6.377  0.0840 -0.2271 -0.3652
 5542TIP3    H133813   0.699   0.042   6.429 -1.2163 -1.9414 -1.2763
 5542TIP3    H233814   0.695   0.191   6.400  1.6247 -1.3296  1.0077
 5543TIP3   OH233815   5.865   3.987   0.434 -0.0542 -0.0775  0.2000
 5543TIP3    H133816   5.934   3.931   0.400 -0.8314 -1.3201  0.6058
 5543TIP3    H233817   5.795   3.927   0.461 -2.9683  1.1317 -3.6543
 5544TIP3   OH233818   0.074   3.657   2.385  0.0760  0.2612  0.4897
 5544TIP3    H133819  -0.003   3.659   2.328  0.7450  2.6268 -0.4584
 5544TIP3    H233820   0.121   3.577   2.358 -0.7382  0.1673 -0.7337
 5545TIP3   OH233821   2.256   6.008   0.849 -0.3510 -0.1506 -0.1115
 5545TIP3    H133822   2.349   5.999   0.825 -0.3786  0.1187 -0.3155
 5545TIP3    H233823   2.221   5.919   0.842 -0.1488 -0.2243 -0.1945
 5546TIP3   OH233824   0.099   4.615   0.694  0.0124 -0.0038 -0.0354
 5546TIP3    H133825   0.174   4.674   0.698  0.3961 -0.4001 -0.9936
 5546TIP3    H233826   0.025   4.668   0.723  0.1032  1.3786 -2.0910
 5547TIP3   OH233827   0.248   0.880   6.967 -0.1772  0.3472  0.1508
 5547TIP3    H133828   0.315   0.813   6.950 -1.5529 -1.2679  0.7238
 5547TIP3    H233829   0.259   0.944   6.897  0.7125 -0.8897 -0.8845
 5548TIP3   OH233830   4.200   2.496   0.990  0.5206 -0.6787  0.2241
 5548TIP3    H133831   4.247   2.422   1.028 -0.7012 -1.6086 -0.0269
 5548TIP3    H233832   4.146   2.530   1.061 -0.1571 -1.0788 -0.0866
 5549TIP3   OH233833   6.103   6.398   1.762  0.5645  0.3820  0.0448
 5549TIP3    H133834   6.176   6.362   1.812  1.0218 -1.2184 -1.6496
 5549TIP3    H233835   6.035   6.414   1.827  1.0013 -1.9111  1.1710
 5550TIP3   OH233836   2.869   2.206   5.634 -0.1530 -0.2341 -0.0023
 5550TIP3    H133837   2.904   2.197   5.722 -0.8582  0.6816  0.3873
 5550TIP3    H233838   2.944   2.229   5.579  0.2194 -0.4369  0.4208
 5551TIP3   OH233839   4.809   2.524   7.088 -0.0707 -0.0651 -0.1946
 5551TIP3    H133840   4.763   2.488   7.012 -0.5799 -1.3502  0.6909
 5551TIP3    H233841   4.783   2.468   7.161  1.5700  0.2337  0.6671
 5552TIP3   OH233842   0.455   1.095   5.631  0.2121  0.4491  0.1477
 5552TIP3    H133843   0.492   1.009   5.649 -0.5924  0.4449  1.9997
 5552TIP3    H233844   0.453   1.100   5.535  0.5759 -1.4480 -0.0073
 5553TIP3   OH233845   5.412   2.257   7.382 -0.1121  0.3870 -0.2639
 5553TIP3    H133846   5.388   2.168   7.360  0.9917  0.0760 -0.2502
 5553TIP3    H233847   5.440   2.253   7.474  2.5371  0.1706 -0.9956
 5554TIP3   OH233848   0.748   3.190   1.260  0.2599  0.2692 -0.0786
 5554TIP3    H133849   0.689   3.188   1.185  0.4225  1.2358 -0.2402
 5554TIP3    H233850   0.798   3.271   1.250 -0.1899  0.7619  1.4441
 5555TIP3   OH233851   0.715   0.123   2.312 -0.2426 -0.3660 -0.4191
 5555TIP3    H133852   0.702   0.043   2.362  2.1955  0.0829  1.0780
 5555TIP3    H233853   0.804   0.116   2.277  0.5775  2.1851  0.8592
 5556TIP3   OH233854   1.214   6.145   6.329 -0.1834  0.3282  0.6234
 5556TIP3    H133855   1.172   6.209   6.271  0.5231 -1.2881 -1.8697
 5556TIP3    H233856   1.306   6.173   6.333  0.2747 -0.7612 -1.0067
 5557TIP3   OH233857   1.381   6.462   0.065 -0.3577  0.1448 -0.3304
 5557TIP3    H133858   1.299   6.487   0.022 -0.4587  0.6427  0.1290
 5557TIP3    H233859   1.407   6.541   0.113  1.1847  0.5193 -1.6682
 5558TIP3   OH233860   3.149   5.591   6.388 -0.6687 -0.2873 -0.3524
 5558TIP3    H133861   3.203   5.574   6.465 -3.0677 -1.1191  1.2738
 5558TIP3    H233862   3.132   5.685   6.391 -1.5741 -0.4641  0.7720
 5559TIP3   OH233863   4.331   5.396   0.744  0.1158 -0.1668 -0.0349
 5559TIP3    H133864   4.254   5.368   0.694 -0.0098 -1.7816  0.9770
 5559TIP3    H233865   4.398   5.331   0.723  0.8164  0.4954  0.0906
 5560TIP3   OH233866   2.838   3.808   1.422  0.4627  0.1861  0.4517
 5560TIP3    H133867   2.831   3.903   1.421 -0.9436  0.1149  0.4049
 5560TIP3    H233868   2.902   3.787   1.354  0.1521  1.0640 -0.1224
 5561TIP3   OH233869   6.428   5.339   1.769 -0.6714  0.3436 -0.5974
 5561TIP3    H133870   6.394   5.318   1.856  0.8176  0.5573  0.0671
 5561TIP3    H233871   6.352   5.373   1.721 -1.6855 -0.5191  0.3506
 5562TIP3   OH233872   4.950   0.946   6.749 -0.4774  0.1567  1.0212
 5562TIP3    H133873   4.903   0.886   6.692  1.0425 -0.4841  0.3873
 5562TIP3    H233874   4.968   0.895   6.828  0.6629 -0.1919  0.5518
 5563TIP3   OH233875   3.941   4.568   7.160  0.3597 -0.3587  0.5104
 5563TIP3    H133876   3.905   4.516   7.232  1.4381  1.9961  2.9020
 5563TIP3    H233877   3.897   4.653   7.167  0.7614  0.0628 -1.4080
 5564TIP3   OH233878   5.865   4.047   1.704  0.1938 -0.3737 -0.1290
 5564TIP3    H133879   5.825   3.966   1.736  0.1464 -0.7142 -1.0067
 5564TIP3    H233880   5.942   4.060   1.760  0.4400 -1.2569 -0.2384
 5565TIP3   OH233881   6.104   2.183   6.577  0.1909 -0.2331 -0.3708
 5565TIP3    H133882   6.146   2.124   6.639 -0.4024 -0.8804 -0.5638
 5565TIP3    H233883   6.176   2.234   6.540  0.6898 -0.6607 -0.0097
 5566TIP3   OH233884   0.106   5.408   7.744  0.3033  0.0281 -0.0732
 5566TIP3    H133885   0.037   5.407   7.678  0.1931  1.7924 -0.0495
 5566TIP3    H233886   0.184   5.438   7.697  0.6358 -0.3261  0.2473
 5567TIP3   OH233887   0.303   4.262   6.536 -0.5354  0.2800 -0.4376
 5567TIP3    H133888   0.283   4.356   6.525  1.6411  0.6444 -1.9410
 5567TIP3    H233889   0.381   4.248   6.482 -0.9082 -2.4676 -0.3942
 5568TIP3   OH233890   6.350   0.825   0.469  0.0743  0.8755  0.4385
 5568TIP3    H133891   6.280   0.832   0.534 -2.3183  0.3131 -1.8852
 5568TIP3    H233892   6.399   0.747   0.494 -0.4315  0.9960  1.8611
 5569TIP3   OH233893   1.093   4.080   7.187  0.2256  0.1286  0.4370
 5569TIP3    H133894   1.042   4.000   7.200 -0.2705  0.4805  0.7021
 5569TIP3    H233895   1.048   4.126   7.117  1.3444 -0.4897 -0.7227
 5570TIP3   OH233896   5.931   4.003   7.408 -0.2788 -0.2687  0.3335
 5570TIP3    H133897   5.956   4.049   7.489 -0.0538 -0.4253  0.3538
 5570TIP3    H233898   5.838   3.984   7.419 -0.6060  1.0168 -0.0792
 5571TIP3   OH233899   1.739   1.108   7.642 -0.0338  0.8461  0.1559
 5571TIP3    H133900   1.738   1.194   7.685  0.0698  0.4208  1.0479
 5571TIP3    H233901   1.741   1.128   7.549  3.0807  1.9024  0.3019
 5572TIP3   OH233902   1.942   5.272   0.043  0.2587 -0.0792  0.3424
 5572TIP3    H133903   1.867   5.330   0.060  0.2601  0.0247  0.0086
 5572TIP3    H233904   1.971   5.296  -0.045 -0.0269 -0.9062  0.0179
 5573TIP3   OH233905   5.528   4.836   0.194  0.0521 -0.3704  0.5031
 5573TIP3    H133906   5.452   4.873   0.150  1.3619  1.0497 -0.7084
 5573TIP3    H233907   5.534   4.746   0.162 -2.5744 -1.4418  2.6693
 5574TIP3   OH233908   4.573   2.988   1.782  0.2745  0.1936 -0.2254
 5574TIP3    H133909   4.653   3.038   1.796  1.3964 -0.2041 -3.9632
 5574TIP3    H233910   4.502   3.049   1.799  1.3462  0.9441  1.8888
 5575TIP3   OH233911   0.941   1.518   1.908  0.2804 -0.2269  0.2947
 5575TIP3    H133912   0.879   1.459   1.950 -1.0657 -0.5496 -1.9810
 5575TIP3    H233913   0.892   1.599   1.893  1.5933  0.9251  1.8339
 5576TIP3   OH233914   2.282   4.541   6.227 -0.4798  0.6666 -0.2437
 5576TIP3    H133915   2.340   4.595   6.174  1.1229  0.0184  0.7674
 5576TIP3    H233916   2.194   4.573   6.207  0.1924  1.5586 -1.9633
 5577TIP3   OH233917   2.807   1.291   1.362  0.0038  0.1968  0.2751
 5577TIP3    H133918   2.864   1.345   1.307 -1.0558 -0.3062 -1.3693
 5577TIP3    H233919   2.834   1.201   1.342 -0.0374  0.0168  1.0016
 5578TIP3   OH233920   6.061   5.647   0.336  0.1312  0.1122 -0.1481
 5578TIP3    H133921   6.058   5.663   0.430 -1.8511  0.4943 -0.2439
 5578TIP3    H233922   6.066   5.735   0.297 -0.7201  0.0386 -0.4343
 5579TIP3   OH233923   3.402   5.697   6.298  0.0086  0.4113 -0.1548
 5579TIP3    H133924   3.444   5.648   6.227  0.1204 -0.5340  0.5294
 5579TIP3    H233925   3.324   5.646   6.319 -0.5954  1.2569 -0.2951
 5580TIP3   OH233926   4.323   1.872   1.182 -0.1995  0.5005 -0.2176
 5580TIP3    H133927   4.244   1.870   1.235 -0.0004  1.7327  0.1653
 5580TIP3    H233928   4.389   1.914   1.238  1.6534 -3.1412  0.6435
 5581TIP3   OH233929   5.715   3.430   5.989 -0.7390  0.3928  0.0210
 5581TIP3    H133930   5.715   3.360   5.924 -3.2751  0.1872  0.1346
 5581TIP3    H233931   5.727   3.511   5.938 -1.9139  0.1716 -0.6447
 5582TIP3   OH233932   0.634   4.982   6.920 -0.2893  0.5069  0.0673
 5582TIP3    H133933   0.650   5.017   7.008 -1.7016 -1.2966  1.0988
 5582TIP3    H233934   0.631   5.060   6.864 -2.3867  2.0067  2.1013
 5583TIP3   OH233935   3.217   4.431   6.639 -0.5197 -0.0563 -0.3522
 5583TIP3    H133936   3.140   4.471   6.682 -1.5457 -0.4666 -1.7363
 5583TIP3    H233937   3.200   4.337   6.643 -0.9127 -0.0885 -2.0766
 5584TIP3   OH233938   4.019   6.533   7.065  0.7789  0.5370  0.3271
 5584TIP3    H133939   4.021   6.612   7.118 -0.3878  1.4157 -0.8692
 5584TIP3    H233940   3.935   6.537   7.019  0.4114 -1.7093  0.6926
 5585TIP3   OH233941   2.210   2.011   1.822  0.4529 -0.3111  0.1188
 5585TIP3    H133942   2.298   2.048   1.827  0.6436 -0.9104  2.0528
 5585TIP3    H233943   2.223   1.923   1.787  0.7298 -0.6386  1.0164
 5586TIP3   OH233944   2.898   0.680   0.428 -0.0395  0.0262  0.7396
 5586TIP3    H133945   2.979   0.636   0.404 -1.4142 -1.6335 -1.1235
 5586TIP3    H233946   2.892   0.755   0.369  0.3664  0.4387  1.2172
 5587TIP3   OH233947   3.367   2.670   6.204  0.2105  0.5255  0.5880
 5587TIP3    H133948   3.446   2.721   6.221  1.5897 -1.1244 -0.5314
 5587TIP3    H233949   3.393   2.579   6.219 -0.9225 -0.2275 -1.5116
 5588TIP3   OH233950   4.243   6.469   6.796 -0.3674 -0.0227 -0.3872
 5588TIP3    H133951   4.205   6.398   6.848 -2.8689  0.2546 -1.6777
 5588TIP3    H233952   4.330   6.483   6.834 -1.1879 -1.3357  2.1959
 5589TIP3   OH233953   4.393   6.618   1.423 -0.1414  0.1930  0.1308
 5589TIP3    H133954   4.427   6.601   1.335  1.3544 -1.0676  0.9082
 5589TIP3    H233955   4.470   6.638   1.476 -0.7282 -1.1929  1.6147
 5590TIP3   OH233956   3.294   0.932   0.348  0.3376  0.5238 -0.1386
 5590TIP3    H133957   3.291   0.923   0.443  2.3415  2.2052  0.1761
 5590TIP3    H233958   3.360   1.000   0.333  0.4858 -0.0859 -2.7597
 5591TIP3   OH233959   2.367   4.062   1.116  0.5179  0.2673 -0.2642
 5591TIP3    H133960   2.303   4.003   1.157  1.8433 -0.6375  0.5732
 5591TIP3    H233961   2.361   4.042   1.023 -0.6705  0.4595 -0.2418
 5592TIP3   OH233962   1.282   2.547   0.722 -0.6852  0.2629  0.6450
 5592TIP3    H133963   1.301   2.503   0.639 -1.7087  0.6027  0.2091
 5592TIP3    H233964   1.251   2.634   0.696 -4.0087 -0.6374  1.1529
 5593TIP3   OH233965   5.052   4.347   5.565 -0.1800 -0.0611 -0.1720
 5593TIP3    H133966   5.088   4.426   5.605  1.1305 -1.0985  0.8242
 5593TIP3    H233967   5.107   4.276   5.600 -0.0691 -1.2262 -2.5374
 5594TIP3   OH233968   3.889   0.224   1.520 -0.2260  0.7345 -0.1068
 5594TIP3    H133969   3.879   0.276   1.599  0.0693  0.0454  0.3888
 5594TIP3    H233970   3.874   0.134   1.548 -1.7219  0.6266 -1.1469
 5595TIP3   OH233971   6.061   4.777   7.153 -0.4843 -0.9145  0.3583
 5595TIP3    H133972   6.078   4.792   7.060  1.8591  2.1482  1.1091
 5595TIP3    H233973   5.982   4.828   7.172 -0.3535 -0.6768  0.2615
 5596TIP3   OH233974   3.741   5.809   0.143  0.0846 -0.3609 -0.6030
 5596TIP3    H133975   3.654   5.847   0.159  0.6990  0.5997  0.5624
 5596TIP3    H233976   3.737   5.723   0.186  0.3272  0.4792  1.1539
 5597TIP3   OH233977   2.591   4.676   6.539 -0.3795  0.2349  0.0600
 5597TIP3    H133978   2.542   4.649   6.461 -0.4554 -0.9170  0.4895
 5597TIP3    H233979   2.680   4.644   6.523 -0.0583  1.1984 -0.1464
 5598TIP3   OH233980   5.761   4.868   6.988  0.2007 -0.6332 -0.4818
 5598TIP3    H133981   5.679   4.915   7.004  0.6133 -0.2478  0.5813
 5598TIP3    H233982   5.815   4.932   6.941  0.3582 -0.4258 -0.0245
 5599TIP3   OH233983   4.562   5.654   5.953 -0.1876  0.1076 -0.7784
 5599TIP3    H133984   4.482   5.706   5.950 -1.4714 -1.7958 -1.0588
 5599TIP3    H233985   4.533   5.566   5.975  2.0938 -0.1792  1.5859
 5600TIP3   OH233986   3.479   2.254   0.238  0.3299  0.6152  0.1394
 5600TIP3    H133987   3.511   2.166   0.259  1.9779  0.9758 -0.6482
 5600TIP3    H233988   3.464   2.251   0.143  0.5461  1.2266  0.0840
 5601TIP3   OH233989   1.563   5.128   6.394  0.4212  0.2960  0.3507
 5601TIP3    H133990   1.538   5.094   6.308  1.2242 -0.0543  0.2476
 5601TIP3    H233991   1.604   5.212   6.376 -0.3391  0.7057  0.4890
 5602TIP3   OH233992   5.289   0.076   0.516 -0.2670 -0.3102  0.6248
 5602TIP3    H133993   5.238   0.082   0.436  1.6140  1.3443 -0.5457
 5602TIP3    H233994   5.245   0.135   0.578 -0.5515  0.0342  0.0950
 5603TIP3   OH233995   0.815   2.931   6.586 -0.2118  0.5071 -0.2072
 5603TIP3    H133996   0.894   2.908   6.636 -0.6246  1.5339  0.9547
 5603TIP3    H233997   0.840   3.010   6.537 -0.2677  0.3422 -0.5064
 5604TIP3   OH233998   4.953   2.869   1.669 -0.3113  0.1260 -0.3044
 5604TIP3    H133999   4.951   2.954   1.626  0.3960  0.1794 -0.2422
 5604TIP3    H234000   5.017   2.879   1.740  1.6215 -1.1375 -1.7831
 5605TIP3   OH234001   3.521   0.608   1.033  0.2916  0.3212  0.0505
 5605TIP3    H134002   3.481   0.522   1.024 -0.7364  0.9366 -1.8232
 5605TIP3    H234003   3.602   0.592   1.081 -0.0078 -1.6246 -0.0120
 5606TIP3   OH234004   6.614   6.555   1.874 -0.2070  0.1267  0.0542
 5606TIP3    H134005   6.708   6.553   1.892 -0.2496 -1.3400  0.2581
 5606TIP3    H234006   6.573   6.519   1.953 -0.9371  0.6234 -0.0809
 5607TIP3   OH234007   3.526   6.208   0.658  0.5024 -0.4706 -0.1786
 5607TIP3    H134008   3.579   6.140   0.617  2.4753  1.5061 -1.1636
 5607TIP3    H234009   3.445   6.210   0.606 -0.3120 -3.0401  0.8727
 5608TIP3   OH234010   3.459   1.844   0.395 -0.4935  0.3132 -0.1599
 5608TIP3    H134011   3.513   1.772   0.427 -2.1862 -0.2051  1.7172
 5608TIP3    H234012   3.518   1.895   0.338  1.5526 -0.9344  0.7299
 5609TIP3   OH234013   1.202   6.304   0.992 -0.3458 -0.2740 -0.4546
 5609TIP3    H134014   1.237   6.215   0.986 -1.0703 -0.6362  0.4121
 5609TIP3    H234015   1.121   6.301   0.942  0.9797  0.6801 -2.8244
 5610TIP3   OH234016   5.620   0.329   0.708  0.5330  0.1020  0.3442
 5610TIP3    H134017   5.685   0.267   0.675 -1.8237 -1.1927 -2.3311
 5610TIP3    H234018   5.551   0.275   0.746  0.5163  1.3948  2.3128
 5611TIP3   OH234019   3.476   6.154   1.039  0.0753  0.0243  0.2912
 5611TIP3    H134020   3.451   6.222   1.101 -1.8688 -2.4773  2.4825
 5611TIP3    H234021   3.411   6.160   0.969  0.7740  1.2562 -0.2847
 5612TIP3   OH234022   4.976   0.896   6.033  0.0309  0.1068  0.7012
 5612TIP3    H134023   4.999   0.960   5.965  1.0763  1.3322  2.1310
 5612TIP3    H234024   5.057   0.846   6.047 -0.0138  0.2035  1.3611
 5613TIP3   OH234025   4.030   6.303   7.254 -0.5171  0.1966  0.0292
 5613TIP3    H134026   4.033   6.385   7.205 -2.5988 -0.3717 -1.1576
 5613TIP3    H234027   4.005   6.329   7.343 -1.4446  0.8463 -0.4036
 5614TIP3   OH234028   0.325   6.577   0.202 -0.2745  0.3722  0.2669
 5614TIP3    H134029   0.317   6.591   0.108  0.3858  1.6713  0.3779
 5614TIP3    H234030   0.290   6.657   0.241  4.8823  2.7226  0.9347
 5615TIP3   OH234031   2.715   2.552   0.716 -0.3987  1.0744  0.0968
 5615TIP3    H134032   2.721   2.511   0.629 -0.0837  1.6476 -0.1578
 5615TIP3    H234033   2.805   2.552   0.748 -0.6469  0.0037  0.8367
 5616TIP3   OH234034   6.288   3.038   1.572 -0.2345  0.0015 -0.4959
 5616TIP3    H134035   6.319   3.021   1.484  1.3569 -0.6615  0.1527
 5616TIP3    H234036   6.225   2.968   1.590  0.4476 -0.6594 -0.6402
 5617TIP3   OH234037   5.247   5.439   7.052  0.4088  0.1204  0.0992
 5617TIP3    H134038   5.205   5.370   7.001  0.2321 -1.6420  2.4492
 5617TIP3    H234039   5.182   5.463   7.118  1.4375  0.6159  0.9748
 5618TIP3   OH234040   0.104   5.620   6.354 -0.1469 -0.5058  0.0408
 5618TIP3    H134041   0.023   5.633   6.304  0.2060  0.4130 -0.3213
 5618TIP3    H234042   0.173   5.657   6.297  0.3162  0.1901  1.0253
 5619TIP3   OH234043   0.538   0.319   7.086  0.2927 -0.3975 -0.1602
 5619TIP3    H134044   0.464   0.301   7.028 -0.6706  0.9984  0.5784
 5619TIP3    H234045   0.498   0.340   7.170  1.6399 -2.0055  0.9619
 5620TIP3   OH234046   3.439   5.329   0.893 -0.0061  0.2926 -0.0101
 5620TIP3    H134047   3.522   5.375   0.886  0.2470 -0.2655 -0.8076
 5620TIP3    H234048   3.439   5.267   0.820 -1.0381  0.1537  0.0831
 5621TIP3   OH234049   0.886   0.037   6.783 -0.5136  0.1358 -0.6233
 5621TIP3    H134050   0.792   0.055   6.773 -0.9803 -1.1345  0.9385
 5621TIP3    H234051   0.910  -0.007   6.701 -0.9637  1.5591 -1.5546
 5622TIP3   OH234052   4.296   2.959   1.279 -0.3968 -0.1978  0.4821
 5622TIP3    H134053   4.312   2.905   1.356  1.0034 -0.2248  0.2026
 5622TIP3    H234054   4.381   2.961   1.233 -0.6389  1.5465  0.0507
 5623TIP3   OH234055   1.477   5.088   1.588  0.3161  0.0790  0.1838
 5623TIP3    H134056   1.501   5.165   1.537  0.9001  0.7978  1.4739
 5623TIP3    H234057   1.394   5.058   1.550  0.9787  0.2592 -1.4784
 5624TIP3   OH234058   0.184   4.026   1.759 -0.1773 -0.5322  0.3671
 5624TIP3    H134059   0.147   4.087   1.824  2.5501  0.1805  1.3649
 5624TIP3    H234060   0.127   3.949   1.764 -2.1360  0.8689  0.9946
 5625TIP3   OH234061   2.818   0.730   5.868  0.2168  0.5353  0.7610
 5625TIP3    H134062   2.903   0.738   5.825  0.5308  0.0898  1.2946
 5625TIP3    H234063   2.755   0.762   5.803  0.9052  2.0983  0.8252
 5626TIP3   OH234064   4.095   3.620   5.873  0.0130 -0.8321  0.3199
 5626TIP3    H134065   4.123   3.632   5.782 -0.7153 -2.9266 -0.2417
 5626TIP3    H234066   4.157   3.555   5.908  0.6558  0.3880  1.5445
 5627TIP3   OH234067   3.412   3.697   0.548 -0.0221  0.0286 -0.8063
 5627TIP3    H134068   3.389   3.648   0.469 -1.6509  0.2218 -0.4823
 5627TIP3    H234069   3.376   3.785   0.533  0.5439  0.3609 -0.2696
 5628TIP3   OH234070   3.406   0.238   0.465 -0.0431  0.4356  0.3456
 5628TIP3    H134071   3.352   0.187   0.405 -1.3710 -0.1781  1.9893
 5628TIP3    H234072   3.457   0.173   0.514  0.7781  0.9020  0.1354
 5629TIP3   OH234073   1.115   4.041   0.496 -0.8163 -0.3091  0.0620
 5629TIP3    H134074   1.102   4.135   0.498  0.1679 -0.1621  1.9206
 5629TIP3    H234075   1.043   4.007   0.443 -0.7144  1.5394 -1.3094
 5630TIP3   OH234076   3.845   1.797   1.887 -0.2929 -0.7858 -0.8189
 5630TIP3    H134077   3.786   1.836   1.822 -1.0379  0.4726  0.5444
 5630TIP3    H234078   3.915   1.861   1.898  0.2551 -1.3565 -0.9584
 5631TIP3   OH234079   3.838   2.199   7.504  0.4804 -0.3402 -0.1301
 5631TIP3    H134080   3.842   2.192   7.408  0.9652  1.2934 -0.2550
 5631TIP3    H234081   3.807   2.113   7.532 -0.6352 -0.5528 -1.8114
 5632TIP3   OH234082   4.502   5.804   7.500 -0.2753  0.4648 -0.2140
 5632TIP3    H134083   4.540   5.717   7.513  1.0854  0.8368 -1.4849
 5632TIP3    H234084   4.544   5.859   7.566  1.3150  0.8199 -1.4545
 5633TIP3   OH234085   2.109   3.234   1.965  0.0559 -0.4655 -0.0254
 5633TIP3    H134086   2.065   3.316   1.986 -0.5750 -1.4892  3.2210
 5633TIP3    H234087   2.203   3.255   1.975  0.0405  0.3536 -1.4078
 5634TIP3   OH234088   3.369   2.078   0.580  0.1999  0.0879  0.1025
 5634TIP3    H134089   3.422   2.119   0.648  0.0357  2.1401 -0.9275
 5634TIP3    H234090   3.430   2.021   0.533  0.9592  0.7174  0.3028
 5635TIP3   OH234091   0.853   6.037   1.493 -0.2380 -0.4135 -0.0793
 5635TIP3    H134092   0.800   6.011   1.568 -0.6936  0.4573 -0.0880
 5635TIP3    H234093   0.915   6.101   1.528 -0.2400 -0.2434 -0.3801
 5636TIP3   OH234094   5.987   6.254   1.288  0.4369 -0.5640  0.2448
 5636TIP3    H134095   5.984   6.165   1.324  2.0243 -0.8156 -0.1957
 5636TIP3    H234096   6.012   6.242   1.196  0.3676  0.3325  0.0952
 5637TIP3   OH234097   3.664   1.846   5.896 -0.0871 -0.1969  0.3745
 5637TIP3    H134098   3.718   1.811   5.824 -0.0542  0.7441 -0.0787
 5637TIP3    H234099   3.722   1.906   5.942 -0.8814  1.2487 -0.4486
 5638TIP3   OH234100   3.847   3.578   7.526  0.0740  0.1327 -0.8454
 5638TIP3    H134101   3.815   3.488   7.527  0.2113  0.0815  0.4355
 5638TIP3    H234102   3.911   3.582   7.597 -1.7373  1.8458  0.8201
 5639TIP3   OH234103   0.999   4.934   6.654 -0.6321  0.1820  0.1947
 5639TIP3    H134104   1.034   4.989   6.724 -0.8403  3.0507 -1.7786
 5639TIP3    H234105   1.049   4.853   6.660  1.6882  1.5923  1.6030
 5640TIP3   OH234106   1.883   1.904   0.592 -0.1423 -0.5083 -0.1278
 5640TIP3    H134107   1.846   1.833   0.540 -1.3359  1.1623 -1.6768
 5640TIP3    H234108   1.807   1.953   0.622  0.6809  0.5972  0.2123
 5641TIP3   OH234109   4.822   3.051   5.450 -0.1965  0.2094 -0.1411
 5641TIP3    H134110   4.869   3.118   5.500  1.3863 -0.2224 -0.9863
 5641TIP3    H234111   4.874   2.972   5.459 -0.7680 -0.3047 -1.1031
 5642TIP3   OH234112   4.115   3.400   0.557  0.0253  0.5504  0.0247
 5642TIP3    H134113   4.122   3.343   0.480 -0.9726 -0.2511  0.5041
 5642TIP3    H234114   4.059   3.472   0.528 -1.3937 -0.3908  0.3292
 5643TIP3   OH234115   2.159   3.329   0.253  0.6039  0.2151  0.3475
 5643TIP3    H134116   2.085   3.301   0.199  0.0689  2.1763  0.0146
 5643TIP3    H234117   2.152   3.276   0.332 -1.1737  0.3769  0.3256
 5644TIP3   OH234118   3.947   2.672   0.886 -0.1957 -0.2959  0.1276
 5644TIP3    H134119   3.954   2.597   0.945  2.2538  0.4433  0.8492
 5644TIP3    H234120   4.034   2.711   0.885 -0.0605 -0.2505 -3.9932
 5645TIP3   OH234121   1.478   1.232   5.183  0.0760 -0.2083  0.0682
 5645TIP3    H134122   1.477   1.326   5.169  2.6050 -0.3153 -1.5744
 5645TIP3    H234123   1.504   1.195   5.098 -2.7136 -2.6049  0.0674
 5646TIP3   OH234124   2.222   3.007   2.190  0.3430 -0.3847  0.3022
 5646TIP3    H134125   2.259   2.994   2.103 -1.5861  2.2210 -1.0316
 5646TIP3    H234126   2.169   2.930   2.206  1.3113 -1.2389 -0.4718
 5647TIP3   OH234127   2.006   1.998   1.524  0.5803  0.1934  0.1737
 5647TIP3    H134128   2.074   1.946   1.568  0.0126 -0.6928  0.0361
 5647TIP3    H234129   1.925   1.949   1.540  0.1367  0.6790 -0.5461
 5648TIP3   OH234130   3.996   5.301   5.698 -0.0961  0.0622 -0.6676
 5648TIP3    H134131   3.950   5.379   5.668 -1.7267 -0.8154 -0.5867
 5648TIP3    H234132   4.010   5.314   5.791 -0.6224  0.1559 -0.5980
 5649TIP3   OH234133   1.510   2.118   2.695  0.0114 -0.0162 -0.1432
 5649TIP3    H134134   1.508   2.205   2.656  1.0849 -0.0512 -0.3039
 5649TIP3    H234135   1.561   2.129   2.776  1.4740 -0.7781 -0.9359
 5650TIP3   OH234136   3.843   4.746   6.300 -0.1241  0.1386 -0.0012
 5650TIP3    H134137   3.909   4.727   6.366 -0.0029 -0.8415 -0.3871
 5650TIP3    H234138   3.881   4.715   6.218 -0.1297  1.6420 -0.6135
 5651TIP3   OH234139   2.361   0.769   7.741 -0.5351  0.0197  0.3538
 5651TIP3    H134140   2.359   0.849   7.793  3.3448 -0.2080  1.1393
 5651TIP3    H234141   2.321   0.702   7.798 -0.5176  0.6962  1.1773
 5652TIP3   OH234142   5.476   0.281   2.015 -0.1997 -0.1665  0.4995
 5652TIP3    H134143   5.488   0.361   1.964 -1.7124 -0.5820 -0.6145
 5652TIP3    H234144   5.416   0.306   2.085 -0.6841 -0.3124  0.1427
 5653TIP3   OH234145   1.839   5.344   1.250 -0.7036  0.1703 -0.3886
 5653TIP3    H134146   1.849   5.355   1.345  0.6155 -1.4523 -0.2841
 5653TIP3    H234147   1.790   5.421   1.222 -0.1305  1.2676  1.4339
 5654TIP3   OH234148   5.589   4.675   7.137  0.2489  0.9542 -0.1834
 5654TIP3    H134149   5.570   4.764   7.107  0.7619  0.6897 -1.3196
 5654TIP3    H234150   5.620   4.629   7.059 -0.9345 -0.5137  0.1717
 5655TIP3   OH234151   6.146   5.426   1.643 -0.2506 -0.2911  0.2498
 5655TIP3    H134152   6.141   5.500   1.582 -0.1923 -1.6447 -1.4532
 5655TIP3    H234153   6.071   5.372   1.621 -0.0690 -0.9451  1.2010
 5656TIP3   OH234154   0.190   3.371   5.930  0.0557  0.4934  0.0102
 5656TIP3    H134155   0.277   3.405   5.949 -0.0170  0.0292  1.2493
 5656TIP3    H234156   0.133   3.408   5.997 -0.0803 -1.7163  1.2307
 5657TIP3   OH234157   3.804   1.548   5.238  0.1519 -0.2363 -0.1898
 5657TIP3    H134158   3.890   1.577   5.269  0.6056 -0.9625 -0.7485
 5657TIP3    H234159   3.742   1.587   5.300  0.9393 -0.3773  0.7071
 5658TIP3   OH234160   1.781   2.795   0.859 -0.1091  0.2432  0.2027
 5658TIP3    H134161   1.694   2.769   0.828  0.1779 -0.0330 -0.3860
 5658TIP3    H234162   1.784   2.890   0.845  0.2900  0.0238 -1.3511
 5659TIP3   OH234163   0.493   2.558   0.107  0.2072  0.1181  0.3076
 5659TIP3    H134164   0.527   2.616   0.039 -0.2042 -0.4472 -0.3842
 5659TIP3    H234165   0.432   2.613   0.157  1.9573  1.1129  1.4826
 5660TIP3   OH234166   2.506   3.780   0.268  0.6910 -0.3200  0.3853
 5660TIP3    H134167   2.470   3.786   0.179  1.6214  0.7750  0.0652
 5660TIP3    H234168   2.512   3.870   0.297 -0.7661 -0.7019  2.0756
 5661TIP3   OH234169   6.117   6.465   0.918  0.3690  0.4716  0.3510
 5661TIP3    H134170   6.145   6.526   0.850 -0.9137  0.8567  0.1370
 5661TIP3    H234171   6.192   6.460   0.978  1.7253 -0.2716 -1.3263
 5662TIP3   OH234172   2.410   3.093   5.743  0.1057 -0.4884  0.0122
 5662TIP3    H134173   2.438   3.184   5.731  0.4545 -0.4676  0.9092
 5662TIP3    H234174   2.336   3.082   5.684  0.4661  0.1883 -0.5788
 5663TIP3   OH234175   3.900   3.688   1.157 -0.4117 -0.3040 -0.3665
 5663TIP3    H134176   3.926   3.700   1.066 -1.5153  1.7272 -0.4699
 5663TIP3    H234177   3.846   3.609   1.157  0.8144 -1.1606 -1.1859
 5664TIP3   OH234178   0.798   3.902   1.990 -0.3842 -0.2820  0.2980
 5664TIP3    H134179   0.774   3.859   2.072 -1.2041  1.9608  1.3110
 5664TIP3    H234180   0.756   3.988   1.994 -1.0201 -0.3262 -2.8069
 5665TIP3   OH234181   4.907   1.439   2.001  0.4307 -0.0936  0.3012
 5665TIP3    H134182   4.930   1.529   2.022  0.0323  0.1334 -0.2001
 5665TIP3    H234183   4.814   1.433   2.023  0.4142 -0.3299  0.1651
 5666TIP3   OH234184   2.943   2.026   6.627  0.7436  0.4129  0.3822
 5666TIP3    H134185   3.001   1.951   6.616  0.6535  0.5057 -0.7953
 5666TIP3    H234186   2.855   1.989   6.625  0.7234  0.4391  0.7599
 5667TIP3   OH234187   3.577   4.881   1.302  0.0688  0.1230 -0.0513
 5667TIP3    H134188   3.668   4.894   1.330  0.2593  1.3727 -1.1370
 5667TIP3    H234189   3.561   4.787   1.315  1.3981 -0.0543  0.4754
 5668TIP3   OH234190   5.745   2.990   6.858 -0.6080 -0.3588 -0.1283
 5668TIP3    H134191   5.814   3.023   6.800  0.9014 -3.7411 -0.5481
 5668TIP3    H234192   5.789   2.970   6.940 -1.7659  0.2087  0.6550
 5669TIP3   OH234193   4.115   3.607   1.336  0.0879  0.2927  0.8920
 5669TIP3    H134194   4.190   3.552   1.315  0.3292  0.9760 -0.1187
 5669TIP3    H234195   4.077   3.568   1.414  0.9755 -0.5778  0.8990
 5670TIP3   OH234196   4.023   3.385   5.508 -0.2884 -0.2302 -0.7185
 5670TIP3    H134197   4.001   3.423   5.423  0.3817 -0.6756 -1.1038
 5670TIP3    H234198   3.939   3.368   5.549 -0.6238  2.4521 -0.1444
 5671TIP3   OH234199   3.391   1.010   0.621 -0.1028  0.2116 -0.0901
 5671TIP3    H134200   3.351   0.933   0.660 -2.4839  1.5501  0.2612
 5671TIP3    H234201   3.485   0.990   0.621 -0.5247 -2.1461  1.1243
 5672TIP3   OH234202   1.495   5.062   1.189 -0.2216  0.1748 -0.2961
 5672TIP3    H134203   1.416   5.042   1.241 -1.0289  2.1876 -0.6369
 5672TIP3    H234204   1.514   5.153   1.210  2.3127 -0.3715  0.0776
 5673TIP3   OH234205   0.168   1.448   0.913  0.1014  0.2678  0.2420
 5673TIP3    H134206   0.220   1.525   0.892 -1.0877  1.4583  1.4625
 5673TIP3    H234207   0.077   1.474   0.896 -0.2470 -1.2764 -0.4660
 5674TIP3   OH234208   1.043   3.110   5.524  0.3081  0.1844 -0.5056
 5674TIP3    H134209   1.057   3.164   5.446  1.8363 -1.5714 -1.5200
 5674TIP3    H234210   1.130   3.107   5.566 -0.5390  1.3373  1.4988
 5675TIP3   OH234211   3.159   2.798   0.890 -0.0522  0.4389  0.0103
 5675TIP3    H134212   3.065   2.781   0.890 -0.2014  1.2093  0.1482
 5675TIP3    H234213   3.168   2.884   0.931  0.7883  0.0170  0.7411
 5676TIP3   OH234214   3.879   3.122   7.201  1.0263  0.1523 -0.1590
 5676TIP3    H134215   3.838   3.160   7.279 -0.2037 -2.2416  0.4577
 5676TIP3    H234216   3.808   3.112   7.138  1.9210  1.6191 -1.4731
 5677TIP3   OH234217   4.557   3.941   1.481 -0.1611 -0.2812 -0.0562
 5677TIP3    H134218   4.626   3.876   1.496 -1.0584 -0.7614  2.5493
 5677TIP3    H234219   4.476   3.896   1.506 -0.9381  1.4432  0.7086
 5678TIP3   OH234220   1.865   2.435   6.081 -0.3720 -0.4921  0.0986
 5678TIP3    H134221   1.795   2.386   6.038 -2.8405  2.2057  0.7059
 5678TIP3    H234222   1.937   2.437   6.018 -2.0575 -0.7061 -1.9096
 5679TIP3   OH234223   1.725   0.431   1.080 -0.3449 -0.1421 -0.1828
 5679TIP3    H134224   1.810   0.463   1.110 -0.6644 -0.2620  0.8611
 5679TIP3    H234225   1.664   0.502   1.100 -0.1119  1.1321 -3.4136
 5680TIP3   OH234226   3.728   2.855   5.736 -0.0169 -0.5804 -0.2391
 5680TIP3    H134227   3.642   2.861   5.696  0.3319 -0.0307 -0.9331
 5680TIP3    H234228   3.712   2.864   5.830 -1.0072 -3.3345 -0.0555
 5681TIP3   OH234229   6.205   5.774   7.253 -0.1121 -0.3438  0.5312
 5681TIP3    H134230   6.273   5.839   7.232 -0.6976 -0.1067 -0.6892
 5681TIP3    H234231   6.214   5.761   7.348  0.9956  0.4015  0.5558
 5682TIP3   OH234232   5.221   2.231   6.570  0.0167 -0.2712  0.1397
 5682TIP3    H134233   5.298   2.263   6.617  0.0117 -0.2780  0.1530
 5682TIP3    H234234   5.231   2.262   6.481  0.7405 -1.4691 -0.2129
 5683TIP3   OH234235   0.649   0.008   1.279 -0.2461 -0.0319  0.5510
 5683TIP3    H134236   0.715   0.064   1.237  0.4991 -1.3680 -0.1363
 5683TIP3    H234237   0.617  -0.048   1.208 -0.7317 -0.6938  1.2860
 5684TIP3   OH234238   3.441   1.636   1.219 -0.0567 -0.1206 -0.6461
 5684TIP3    H134239   3.532   1.609   1.206  0.5117  1.6725 -0.6669
 5684TIP3    H234240   3.424   1.618   1.312  1.0141  1.3987 -0.1231
 5685TIP3   OH234241   0.717   4.974   5.790  0.9577  0.6120 -0.0038
 5685TIP3    H134242   0.758   4.899   5.833 -0.1288  0.8509  1.5242
 5685TIP3    H234243   0.625   4.950   5.780  0.8344  1.2840 -0.5886
 5686TIP3   OH234244   0.933   1.366   0.542  0.6026  0.1429  0.4721
 5686TIP3    H134245   1.017   1.412   0.542  0.5317  0.2769 -0.0328
 5686TIP3    H234246   0.942   1.299   0.611  1.1651  0.0754  0.3344
 5687TIP3   OH234247   2.057   0.930   0.607  0.8357 -0.0567 -0.5367
 5687TIP3    H134248   1.974   0.886   0.589  0.8773  0.0850 -1.0944
 5687TIP3    H234249   2.109   0.865   0.654 -0.1264  0.3501  1.1742
 5688TIP3   OH234250   0.461   4.068   1.710 -0.2235 -0.4512 -0.4201
 5688TIP3    H134251   0.372   4.038   1.725 -0.2769 -1.0726 -1.7881
 5688TIP3    H234252   0.482   4.121   1.786 -1.4423 -1.0221  0.3395
 5689TIP3   OH234253   4.538   2.633   1.231 -0.3933 -0.0136  0.2390
 5689TIP3    H134254   4.474   2.591   1.289  0.6380  0.6512  1.9368
 5689TIP3    H234255   4.535   2.581   1.151 -0.2911 -2.4094  1.6721
 5690TIP3   OH234256   2.957   0.013   7.326  0.0873  0.7015  0.6907
 5690TIP3    H134257   2.911   0.069   7.388 -0.6687  0.6060  0.2345
 5690TIP3    H234258   2.944   0.056   7.241  0.8516  0.6771  0.5583
 5691TIP3   OH234259   4.949   2.853   5.555  0.3463 -0.1474  0.3792
 5691TIP3    H134260   4.959   2.759   5.570  0.5569 -0.0864  0.6276
 5691TIP3    H234261   5.005   2.894   5.622 -0.4470  0.1696  0.8597
 5692TIP3   OH234262   2.871   0.381   5.572  1.1808  0.3507  0.6546
 5692TIP3    H134263   2.931   0.362   5.500 -0.0925 -2.3124  0.1755
 5692TIP3    H234264   2.896   0.320   5.641 -0.4129 -0.2984  0.7226
 5693TIP3   OH234265   1.122   1.796   0.712  0.3116 -0.2912 -0.1190
 5693TIP3    H134266   1.038   1.756   0.733  0.9701 -2.2806 -0.9838
 5693TIP3    H234267   1.175   1.784   0.791  0.0145  0.3534  0.1863
 5694TIP3   OH234268   1.269   1.142   1.081 -0.8464  0.1959  0.3547
 5694TIP3    H134269   1.268   1.108   1.170 -0.5855  1.2889  0.7870
 5694TIP3    H234270   1.342   1.203   1.079  0.6970 -1.5489 -1.3028
 5695TIP3   OH234271   2.024   3.826   1.715  0.3714 -0.2765 -0.1817
 5695TIP3    H134272   1.952   3.791   1.768  0.2270 -1.3218 -1.0322
 5695TIP3    H234273   2.008   3.791   1.627  1.5228  0.0708 -0.5453
 5696TIP3   OH234274   2.962   5.823   7.313  0.5273 -0.0230 -0.2417
 5696TIP3    H134275   2.901   5.753   7.334  0.0953  0.6699  0.8892
 5696TIP3    H234276   3.049   5.784   7.322  0.2809 -0.5140  0.0017
 5697TIP3   OH234277   0.817   5.672   5.534 -1.0369  0.2945  0.3146
 5697TIP3    H134278   0.863   5.649   5.454 -0.7696  0.4121  0.4344
 5697TIP3    H234279   0.877   5.730   5.581 -1.0620 -0.0209  0.7462
 5698TIP3   OH234280   5.688   4.129   1.137 -0.3217 -0.1979 -0.0607
 5698TIP3    H134281   5.783   4.143   1.146 -0.3824  0.9255 -0.9666
 5698TIP3    H234282   5.670   4.144   1.045 -1.3293 -0.8441  0.0152
 5699TIP3   OH234283   2.227   2.930   1.671  0.1155  0.5301  0.0101
 5699TIP3    H134284   2.206   2.840   1.694  1.7936  0.1764  0.2902
 5699TIP3    H234285   2.161   2.954   1.606 -0.7284 -0.6720  0.3793
 5700TIP3   OH234286   3.909   3.782   1.409  0.1545  0.3019 -0.3072
 5700TIP3    H134287   3.854   3.710   1.441 -0.5790  0.9522 -0.0790
 5700TIP3    H234288   3.887   3.856   1.465  0.7681  0.7598 -0.6574
 5701TIP3   OH234289   2.683   3.807   0.617  0.3863  0.0793  0.0835
 5701TIP3    H134290   2.630   3.811   0.538  0.4385  0.3754  0.0624
 5701TIP3    H234291   2.734   3.726   0.608  0.8317  0.4154 -0.4642
 5702TIP3   OH234292   3.897   3.379   0.095  0.1667 -0.4392 -0.0327
 5702TIP3    H134293   3.826   3.433   0.060 -0.7890 -1.0017  0.9923
 5702TIP3    H234294   3.962   3.377   0.024  0.5600  2.5827  0.1113
 5703TIP3   OH234295   4.163   3.767   1.105  0.2787  0.8231 -0.5238
 5703TIP3    H134296   4.248   3.811   1.112  1.2926 -0.8971 -1.4232
 5703TIP3    H234297   4.163   3.727   1.018 -2.1330  2.0671 -1.1977
 5704TIP3   OH234298   1.320   2.386   0.503 -0.3427  0.1733  0.0389
 5704TIP3    H134299   1.326   2.320   0.434  0.5566 -0.7043  0.9229
 5704TIP3    H234300   1.251   2.354   0.561  0.3507 -0.2107  0.6728
 5705TIP3   OH234301   1.998   3.417   7.685 -0.1413 -0.0515 -1.1706
 5705TIP3    H134302   2.088   3.414   7.719  0.7671  1.0287 -3.2544
 5705TIP3    H234303   1.985   3.333   7.642 -0.3248 -0.3956 -0.4564
 5706TIP3   OH234304   2.291   4.655   1.924  0.4063 -0.1972 -0.3219
 5706TIP3    H134305   2.378   4.685   1.951  0.2550 -0.9355  1.0545
 5706TIP3    H234306   2.245   4.734   1.897  1.2131  0.3119 -0.2262
 5707TIP3   OH234307   3.059   4.410   1.487  0.0178 -1.0530  0.1720
 5707TIP3    H134308   3.035   4.361   1.566 -1.9484  0.1700  0.3900
 5707TIP3    H234309   3.020   4.361   1.415  1.1036 -1.7131  0.0112
 5708TIP3   OH234310   6.008   4.297   1.563  0.4590 -0.4036  0.4598
 5708TIP3    H134311   5.941   4.328   1.502 -0.6225 -0.5417  1.5309
 5708TIP3    H234312   6.043   4.376   1.604  0.4457 -0.3744  0.4143
 5709TIP3   OH234313   3.412   1.020   6.124 -0.1863 -0.7985 -0.7353
 5709TIP3    H134314   3.421   1.062   6.038 -0.3413  1.5326  0.3079
 5709TIP3    H234315   3.479   0.953   6.126  2.0980  1.3286 -1.4640
 5710TIP3   OH234316   6.419   3.539   1.705  0.5736 -0.1149  0.2131
 5710TIP3    H134317   6.441   3.460   1.656 -0.8887 -0.5376  0.1915
 5710TIP3    H234318   6.380   3.598   1.641  1.7013  0.6929  0.2144
 5711TIP3   OH234319   1.660   0.111   6.781 -0.3098 -0.0294 -0.1541
 5711TIP3    H134320   1.721   0.184   6.784 -0.1112 -0.2125  0.4112
 5711TIP3    H234321   1.709   0.038   6.819 -1.2225  0.0789  1.2967
 5712TIP3   OH234322   0.109   3.712   6.427  0.2476  0.3924 -0.0254
 5712TIP3    H134323   0.043   3.777   6.452 -1.3461 -0.1493 -2.4495
 5712TIP3    H234324   0.116   3.719   6.332  0.3996 -2.5584 -0.3443
 5713TIP3   OH234325   3.979   1.603   1.650 -0.1804  0.3774 -0.9932
 5713TIP3    H134326   4.042   1.532   1.662  0.9550  1.1503 -2.0811
 5713TIP3    H234327   3.919   1.595   1.724  0.5705 -1.0301 -0.4983
 5714TIP3   OH234328   3.875   1.478   1.016  0.7234 -0.4093  0.3132
 5714TIP3    H134329   3.938   1.485   1.088  0.7932  1.4055  0.1054
 5714TIP3    H234330   3.862   1.383   1.006  1.0458 -0.7307  2.4001
 5715TIP3   OH234331   0.010   4.793   7.088 -0.2791 -0.0041  0.0547
 5715TIP3    H134332   0.081   4.852   7.062 -0.3969  0.4776  0.7722
 5715TIP3    H234333  -0.070   4.842   7.071 -0.3571  0.3537  1.3272
 5716TIP3   OH234334   5.300   3.082   6.241 -0.0065  0.2485 -0.1856
 5716TIP3    H134335   5.236   3.068   6.171 -1.5144 -0.7924  1.3361
 5716TIP3    H234336   5.308   3.178   6.246 -0.8602  0.3760 -0.9170
 5717TIP3   OH234337   4.328   2.144   1.483  0.5525  0.1042  0.1399
 5717TIP3    H134338   4.378   2.181   1.555  0.3893 -1.8899  1.3659
 5717TIP3    H234339   4.238   2.172   1.499  0.7386  0.9301 -0.1885
 5718TIP3   OH234340   0.044   1.647   7.086 -0.0814 -0.1976  0.0369
 5718TIP3    H134341  -0.047   1.626   7.063  0.2311 -0.2870 -1.1892
 5718TIP3    H234342   0.091   1.565   7.073  0.5221  0.3365 -1.3346
 5719TIP3   OH234343   4.329   3.946   0.284  0.2070 -0.0042 -0.1717
 5719TIP3    H134344   4.371   3.937   0.370  0.8581 -0.8724 -0.5547
 5719TIP3    H234345   4.271   4.022   0.293  1.5362  0.9767  0.5211
 5720TIP3   OH234346   6.601   5.837   0.942 -0.0900  0.0053  0.0572
 5720TIP3    H134347   6.552   5.844   0.860  1.3865  0.6039 -0.8284
 5720TIP3    H234348   6.588   5.747   0.971 -0.7773 -0.1678 -0.7543
 5721TIP3   OH234349   0.903   2.917   1.114 -0.3583 -0.0631 -0.2459
 5721TIP3    H134350   0.832   2.928   1.177 -1.1845  0.4085 -1.2384
 5721TIP3    H234351   0.942   3.004   1.107  0.7602 -0.4474  0.7651
 5722TIP3   OH234352   1.034   1.530   6.131 -0.1255  0.5437  0.2932
 5722TIP3    H134353   0.982   1.453   6.152 -1.7600  1.2461 -0.9658
 5722TIP3    H234354   1.119   1.514   6.173 -0.6489 -1.5935  0.6492
 5723TIP3   OH234355   4.883   4.970   5.974  0.6503  0.1561 -0.1675
 5723TIP3    H134356   4.867   4.889   5.926  2.2953 -0.3161  0.0358
 5723TIP3    H234357   4.968   5.001   5.942  0.6003  1.1715  0.6298
 5724TIP3   OH234358   6.201   2.633   0.120 -0.6021  0.1324 -0.0634
 5724TIP3    H134359   6.189   2.538   0.127  1.6253 -0.1061  1.5540
 5724TIP3    H234360   6.229   2.661   0.207 -1.1623  2.2924 -0.5074
 5725TIP3   OH234361   6.164   0.457   1.764  0.0585  0.8926 -0.4511
 5725TIP3    H134362   6.180   0.364   1.778 -0.5942  0.7025 -0.8930
 5725TIP3    H234363   6.214   0.502   1.832  1.0814  0.2591 -0.7776
 5726TIP3   OH234364   4.417   5.951   6.971 -0.4693  0.3121  0.0773
 5726TIP3    H134365   4.493   5.920   6.922 -1.4418 -2.0504 -0.0973
 5726TIP3    H234366   4.416   5.897   7.050 -1.6098  0.7264  0.3677
 5727TIP3   OH234367   4.821   5.135   1.543 -0.1391 -0.2041  0.6181
 5727TIP3    H134368   4.804   5.172   1.630  0.1862  0.5467  0.3671
 5727TIP3    H234369   4.741   5.153   1.493 -0.1967 -0.3427  0.6581
 5728TIP3   OH234370   4.601   5.506   0.430  0.5113 -0.0455 -0.2014
 5728TIP3    H134371   4.617   5.600   0.436  0.9875 -0.1938  1.1041
 5728TIP3    H234372   4.679   5.471   0.388 -0.0479  0.2321 -1.5106
 5729TIP3   OH234373   3.046   4.984   2.275 -0.3678 -0.4958 -0.0875
 5729TIP3    H134374   3.044   5.071   2.316  2.2569 -0.0359 -0.7911
 5729TIP3    H234375   3.062   4.924   2.347  3.3904  0.2274 -0.1434
 5730TIP3   OH234376   5.338   3.576   1.464  0.7268  0.1383  0.2298
 5730TIP3    H134377   5.297   3.625   1.534  1.1775  1.5525 -0.4644
 5730TIP3    H234378   5.277   3.505   1.445 -0.0198  0.5234  1.1330
 5731TIP3   OH234379   2.912   4.422   0.733  0.1335 -0.4388 -0.2648
 5731TIP3    H134380   2.863   4.362   0.790  0.4587 -2.6619 -2.1534
 5731TIP3    H234381   2.859   4.427   0.653 -0.4029  2.7455  0.1709
 5732TIP3   OH234382   3.428   6.193   7.588  0.1181  0.6434 -0.7292
 5732TIP3    H134383   3.454   6.171   7.677 -0.6260 -0.3081 -0.7385
 5732TIP3    H234384   3.377   6.274   7.597 -0.3563  0.2942 -0.2362
 5733TIP3   OH234385   1.177   4.339   7.060 -0.9685 -0.4237 -0.0893
 5733TIP3    H134386   1.244   4.292   7.010 -1.7930 -1.2811 -0.4278
 5733TIP3    H234387   1.095   4.292   7.041 -1.6435  0.4912  0.4443
 5734TIP3   OH234388   1.182   0.776   7.309 -0.2525  0.1083 -0.2136
 5734TIP3    H134389   1.151   0.700   7.357 -1.6250 -0.4913 -1.9545
 5734TIP3    H234390   1.276   0.779   7.327 -0.5635 -0.5451  1.7976
 5735TIP3   OH234391   4.878   1.964   7.198  0.1938 -0.2713 -0.6371
 5735TIP3    H134392   4.791   1.987   7.165  0.5958  0.4942 -1.1893
 5735TIP3    H234393   4.922   1.926   7.123  0.2086 -1.0477 -0.2468
 5736TIP3   OH234394   2.713   2.851   1.857 -0.0671  0.2471  0.4464
 5736TIP3    H134395   2.712   2.916   1.787 -1.2070 -0.5196 -0.2916
 5736TIP3    H234396   2.787   2.876   1.912  0.3196  1.3838 -0.5425
 5737TIP3   OH234397   6.549   4.812   0.799  0.1861 -0.0004  0.2945
 5737TIP3    H134398   6.510   4.845   0.719  0.2587  2.4284  1.1698
 5737TIP3    H234399   6.481   4.824   0.866  1.4883  1.9600  1.3558
 5738TIP3   OH234400   0.640   2.212   0.357 -0.0283 -0.4043 -0.1171
 5738TIP3    H134401   0.568   2.271   0.379 -0.1611 -0.8672  0.7441
 5738TIP3    H234402   0.617   2.130   0.400  0.7883 -0.6966 -0.2268
 5739TIP3   OH234403   2.678   2.218   6.319  0.5679 -0.3399  0.2800
 5739TIP3    H134404   2.663   2.169   6.399 -1.2060  0.2398  0.3598
 5739TIP3    H234405   2.714   2.154   6.258  0.6811 -1.1132  1.1405
 5740TIP3   OH234406   0.870   6.337   6.098 -0.1823 -0.4050 -0.0635
 5740TIP3    H134407   0.795   6.280   6.109  0.7187 -2.1448 -2.1438
 5740TIP3    H234408   0.853   6.385   6.016  0.9267 -0.8441 -0.5822
 5741TIP3   OH234409   2.862   2.452   5.199  0.7189 -0.1354  0.0293
 5741TIP3    H134410   2.778   2.479   5.237  0.7520 -0.7557  0.5624
 5741TIP3    H234411   2.839   2.412   5.116  0.4847 -0.3283  0.1862
 5742TIP3   OH234412   2.517   4.890   6.787  0.0293 -0.3362 -0.2371
 5742TIP3    H134413   2.583   4.959   6.787 -0.6834  0.3717 -0.9299
 5742TIP3    H234414   2.480   4.893   6.699  0.8754 -2.4923 -0.7269
 5743TIP3   OH234415   1.748   1.548   4.086  0.0845  0.4760  0.1044
 5743TIP3    H134416   1.680   1.554   4.019 -0.7086 -0.1144  0.8337
 5743TIP3    H234417   1.718   1.478   4.144  1.4203  0.0715  0.3347
 5744TIP3   OH234418   1.074   1.199   2.819 -0.4959  0.0319 -0.2015
 5744TIP3    H134419   1.021   1.277   2.803 -0.0704 -0.0747 -2.4289
 5744TIP3    H234420   1.067   1.148   2.738  2.6250 -0.1915 -0.4728
 5745TIP3   OH234421   3.535   4.205   7.129  0.0065 -0.3948  0.6327
 5745TIP3    H134422   3.611   4.166   7.172 -0.2816 -0.5749  0.9860
 5745TIP3    H234423   3.568   4.284   7.087  0.5165 -0.8008  0.2589
 5746TIP3   OH234424   1.334   2.795   6.324 -0.0944 -0.0650  0.3662
 5746TIP3    H134425   1.354   2.736   6.396  1.9893  0.6172  0.4085
 5746TIP3    H234426   1.255   2.758   6.284  0.0065 -1.7231  1.6013
 5747TIP3   OH234427   1.197   2.405   7.050 -0.1411 -0.5093  0.0444
 5747TIP3    H134428   1.163   2.477   7.102 -0.9275 -0.4337 -0.5640
 5747TIP3    H234429   1.127   2.340   7.050 -0.0250 -0.6409 -0.6601
 5748TIP3   OH234430   6.157   4.712   0.167 -0.0937  0.1413  0.0114
 5748TIP3    H134431   6.119   4.780   0.111  2.2370  0.1099 -1.7678
 5748TIP3    H234432   6.155   4.633   0.113  0.4932 -0.3420  0.6889
 5749TIP3   OH234433   3.708   2.162   0.509  0.0405  0.0113  0.5909
 5749TIP3    H134434   3.658   2.210   0.576 -0.3645  0.6401 -0.1450
 5749TIP3    H234435   3.798   2.192   0.521 -0.2935  1.4481 -0.2414
 5750TIP3   OH234436   3.405   3.976   0.399 -0.2649  0.7379  0.0913
 5750TIP3    H134437   3.462   4.050   0.377 -1.6245  1.2943 -1.7852
 5750TIP3    H234438   3.328   3.988   0.344 -1.3597 -1.0574  1.1449
 5751TIP3   OH234439   5.401   3.382   6.602  0.3337  0.3621  0.0892
 5751TIP3    H134440   5.354   3.465   6.605 -0.0445  0.1815 -0.6984
 5751TIP3    H234441   5.449   3.379   6.685 -1.9040  0.0605  1.4530
 5752TIP3   OH234442   5.062   1.372   6.528 -0.0086  0.6686  0.6147
 5752TIP3    H134443   5.043   1.358   6.435  1.6374 -0.3403  0.3835
 5752TIP3    H234444   5.131   1.309   6.548  1.8064  2.8451  1.7505
 5753TIP3   OH234445   1.055   1.063   0.493 -0.6251  0.0271  0.3436
 5753TIP3    H134446   1.106   1.144   0.496  0.4023 -0.4200 -2.5160
 5753TIP3    H234447   1.109   1.002   0.442 -2.0097 -2.0204  1.1919
 5754TIP3   OH234448   4.164   3.738   7.342 -0.2353  0.4432  0.3097
 5754TIP3    H134449   4.237   3.792   7.311 -0.2902  0.4948  0.2706
 5754TIP3    H234450   4.162   3.752   7.436 -0.8036  1.1975  0.1911
 5755TIP3   OH234451   1.517   2.221   1.644 -0.3876 -0.1774  0.5070
 5755TIP3    H134452   1.609   2.205   1.621  0.0691  2.5104  0.0731
 5755TIP3    H234453   1.470   2.214   1.561  0.1807  2.6784 -0.1579
 5756TIP3   OH234454   1.594   3.338   6.338  0.3476  0.7003 -0.6422
 5756TIP3    H134455   1.589   3.243   6.334 -0.2882  0.6771  0.3952
 5756TIP3    H234456   1.517   3.369   6.291 -0.0700  0.6722  0.0117
 5757TIP3   OH234457   6.618   0.570   6.456  0.2225 -0.3894  0.1121
 5757TIP3    H134458   6.548   0.585   6.392 -0.5905  0.0352  1.0713
 5757TIP3    H234459   6.683   0.518   6.409 -0.6766 -0.6803 -0.8486
 5758TIP3   OH234460   5.068   6.349   0.628 -0.0251 -0.3025 -0.2306
 5758TIP3    H134461   5.037   6.376   0.714 -0.3705 -1.1487 -0.0800
 5758TIP3    H234462   4.988   6.341   0.575  0.2551  1.2128 -0.9456
 5759TIP3   OH234463   2.546   2.955   0.156  0.3110  0.2588 -0.1099
 5759TIP3    H134464   2.589   3.023   0.104  0.1930  0.4271  0.0131
 5759TIP3    H234465   2.577   2.969   0.245  0.1915  0.2270 -0.0631
 5760TIP3   OH234466   0.052   1.467   6.765  0.1727 -0.0299 -0.0707
 5760TIP3    H134467  -0.042   1.461   6.751  0.1223  0.2165  0.1581
 5760TIP3    H234468   0.086   1.503   6.683  0.0868 -0.2603 -0.2089
 5761TIP3   OH234469   3.084   4.944   1.246  0.3171  0.2038 -0.3118
 5761TIP3    H134470   3.174   4.956   1.214  0.9800 -0.2547  1.2777
 5761TIP3    H234471   3.068   4.850   1.238  0.3205  0.1528  0.2593
 5762TIP3   OH234472   0.672   5.264   6.845 -0.0085 -0.4024 -0.1891
 5762TIP3    H134473   0.617   5.305   6.778 -0.3054  0.7542  0.7414
 5762TIP3    H234474   0.759   5.258   6.803 -0.0126  0.9655 -0.4522
 5763TIP3   OH234475   1.427   3.358   2.277 -0.4029 -0.9603 -0.3292
 5763TIP3    H134476   1.473   3.335   2.196  0.7843  0.9775 -0.2757
 5763TIP3    H234477   1.497   3.374   2.340 -1.0764  1.7876 -0.1535
 5764TIP3   OH234478   4.258   3.082   5.782 -0.1867 -0.1748 -0.2758
 5764TIP3    H134479   4.232   3.174   5.778  0.7261  0.1230  0.1890
 5764TIP3    H234480   4.283   3.060   5.692 -2.0453 -0.4915 -0.7416
 5765TIP3   OH234481   3.648   6.067   6.126  0.2732 -0.5426 -0.1615
 5765TIP3    H134482   3.691   6.028   6.049  0.6168 -0.1735 -0.1585
 5765TIP3    H234483   3.565   6.101   6.092  0.5856 -0.0569 -0.4496
 5766TIP3   OH234484   5.216   0.926   6.468 -0.4098 -0.1463 -0.1854
 5766TIP3    H134485   5.242   0.846   6.514 -1.3095  0.2222  1.0318
 5766TIP3    H234486   5.130   0.905   6.431 -0.3510  0.0462 -0.4347
 5767TIP3   OH234487   2.618   1.110   6.481  0.0907 -0.2506  0.0635
 5767TIP3    H134488   2.575   1.143   6.402 -0.2071 -1.0105 -0.1061
 5767TIP3    H234489   2.548   1.109   6.547  0.2386 -0.0045  0.2234
 5768TIP3   OH234490   2.281   3.800   1.060  0.0356  0.0598  0.6523
 5768TIP3    H134491   2.322   3.739   0.998 -1.1000 -0.4384  0.3632
 5768TIP3    H234492   2.195   3.762   1.078 -0.5239  1.3405  0.8210
 5769TIP3   OH234493   1.041   1.108   1.436 -0.1870  0.0401 -0.6121
 5769TIP3    H134494   1.031   1.186   1.489 -0.7692  0.4939 -1.3686
 5769TIP3    H234495   0.975   1.047   1.468 -0.1639  0.1024 -0.4481
 5770TIP3   OH234496   1.762   3.205   6.776 -0.4648 -0.1253 -0.4661
 5770TIP3    H134497   1.712   3.275   6.732  0.9464  0.3993 -1.2934
 5770TIP3    H234498   1.833   3.185   6.716  0.0368 -1.2318  0.4569
 5771TIP3   OH234499   1.087   1.793   6.711 -0.1813  0.4774  0.0016
 5771TIP3    H134500   1.126   1.879   6.695 -0.7644  0.7362 -0.0455
 5771TIP3    H234501   1.132   1.735   6.650  0.4130  0.6926  0.2316
 5772TIP3   OH234502   5.512   1.585   0.300 -1.0901 -0.1655 -0.5053
 5772TIP3    H134503   5.487   1.498   0.269 -1.0199 -0.4073  0.1166
 5772TIP3    H234504   5.523   1.636   0.220 -0.3042 -0.9456 -0.9108
 5773TIP3   OH234505   2.606   4.378   0.670  0.0671 -0.1433  0.5436
 5773TIP3    H134506   2.532   4.333   0.711  0.6860  0.1507  2.0178
 5773TIP3    H234507   2.595   4.469   0.695  1.1359 -0.1553  1.1144
 5774TIP3   OH234508   2.180   6.544   0.748 -0.3256 -0.0650 -0.0940
 5774TIP3    H134509   2.188   6.638   0.735 -0.1962  0.0282  0.6624
 5774TIP3    H234510   2.239   6.506   0.683 -1.1147  0.3328 -1.0762
 5775TIP3   OH234511   4.721   3.590   6.770 -0.0568 -0.2258 -0.2183
 5775TIP3    H134512   4.656   3.627   6.711  0.0219 -0.9740 -0.7814
 5775TIP3    H234513   4.722   3.497   6.750 -1.1778 -0.8048  2.0380
 5776TIP3   OH234514   5.207   0.118   7.745 -0.6213 -0.0559  0.2612
 5776TIP3    H134515   5.296   0.140   7.773 -0.5318 -1.2107  0.9397
 5776TIP3    H234516   5.201   0.023   7.755 -1.8718 -0.0166  0.0465
 5777TIP3   OH234517   1.559   6.078   0.109 -0.1262 -0.5653  0.0428
 5777TIP3    H134518   1.652   6.075   0.087  0.1577  0.3798  0.9988
 5777TIP3    H234519   1.558   6.103   0.202 -1.3349  0.6302 -0.2599
 5778TIP3   OH234520   4.071   5.031   5.750  0.0359  0.4583  0.2091
 5778TIP3    H134521   4.040   5.113   5.713 -0.0818  0.2240 -0.2217
 5778TIP3    H234522   4.167   5.037   5.745  0.0282  0.5900  0.2226
 5779TIP3   OH234523   2.389   3.050   7.247 -0.3795  0.3343  0.6137
 5779TIP3    H134524   2.401   2.955   7.247 -0.5667  0.2925 -0.6110
 5779TIP3    H234525   2.329   3.067   7.319 -0.5664 -0.5119  0.6653
 5780TIP3   OH234526   3.255   3.293   2.316  0.5453  0.1594  0.3589
 5780TIP3    H134527   3.267   3.355   2.388 -0.6734  0.4071  0.3716
 5780TIP3    H234528   3.163   3.267   2.322  0.7381 -0.7375 -0.3806
 5781TIP3   OH234529   3.139   6.313   1.675 -0.1035  0.6066 -0.7453
 5781TIP3    H134530   3.101   6.389   1.720  2.3085  1.5820 -0.2375
 5781TIP3    H234531   3.093   6.309   1.591 -0.2003  2.7052 -0.8295
 5782TIP3   OH234532   6.406   2.370   0.400 -0.2192  0.4255  0.4152
 5782TIP3    H134533   6.472   2.439   0.412  1.0020 -0.6442  0.0548
 5782TIP3    H234534   6.353   2.401   0.326 -1.1704  2.0455  1.6863
 5783TIP3   OH234535   5.212   2.345   7.700 -0.4939  0.2892 -0.0731
 5783TIP3    H134536   5.292   2.347   7.751 -1.0017  0.1635  0.7347
 5783TIP3    H234537   5.216   2.262   7.652 -0.1474  0.2868 -0.0423
 5784TIP3   OH234538   4.493   6.503   6.136  0.1097  0.1006  0.5372
 5784TIP3    H134539   4.502   6.574   6.200  0.6489  1.1111 -0.6229
 5784TIP3    H234540   4.502   6.546   6.051 -3.8471 -0.6463 -0.4483
 5785TIP3   OH234541   4.486   1.743   0.867 -0.1435 -0.1384 -0.4713
 5785TIP3    H134542   4.475   1.696   0.784  0.8668 -0.0226 -0.6879
 5785TIP3    H234543   4.514   1.677   0.929  0.3518  0.0006 -0.5429
 5786TIP3   OH234544   5.886   4.324   7.415  0.2735  0.1068 -0.0636
 5786TIP3    H134545   5.838   4.253   7.457  1.9598 -1.5647 -0.8025
 5786TIP3    H234546   5.891   4.393   7.482 -0.7100 -0.7946  0.9682
 5787TIP3   OH234547   0.082   4.911   1.932  0.0022 -0.2669 -0.7636
 5787TIP3    H134548   0.143   4.865   1.990 -0.1549  0.0886 -0.3108
 5787TIP3    H234549   0.107   5.003   1.939 -2.1975  0.2851  1.4823
 5788TIP3   OH234550   2.498   0.138   1.853 -0.3449 -0.1384  0.3968
 5788TIP3    H134551   2.474   0.109   1.941 -0.0515  0.9104  0.8390
 5788TIP3    H234552   2.420   0.123   1.800 -0.8994  0.2628  1.0921
 5789TIP3   OH234553   0.811   3.658   6.977  0.2631  0.0644  0.2395
 5789TIP3    H134554   0.719   3.630   6.983  0.4305 -0.2765  1.4744
 5789TIP3    H234555   0.839   3.629   6.890 -1.3051  1.7908 -0.9376
 5790TIP3   OH234556   1.008   2.033   0.281 -0.5450  0.7802 -0.1263
 5790TIP3    H134557   1.084   2.013   0.335 -1.2118  1.2022  1.0165
 5790TIP3    H234558   1.043   2.050   0.194  0.5985  0.4004  0.2478
 5791TIP3   OH234559   3.668   2.594   6.093 -0.1190 -0.1031 -0.6703
 5791TIP3    H134560   3.746   2.553   6.055 -0.2035 -1.0051  0.0902
 5791TIP3    H234561   3.642   2.535   6.163 -1.2966  0.3603 -0.6941
 5792TIP3   OH234562   3.945   5.490   0.165 -0.1051 -0.1006 -0.2367
 5792TIP3    H134563   3.926   5.572   0.119 -0.8564 -0.1687 -0.0563
 5792TIP3    H234564   4.022   5.510   0.219 -0.4240  0.5512 -0.0121
 5793TIP3   OH234565   1.626   2.641   5.395  0.1377 -0.1076 -0.4064
 5793TIP3    H134566   1.620   2.546   5.390  2.0218 -0.2459 -0.7385
 5793TIP3    H234567   1.669   2.667   5.314  3.1351  0.6125  1.2590
 5794TIP3   OH234568   0.014   1.007   1.197  0.4402 -0.0881  0.4202
 5794TIP3    H134569   0.049   1.039   1.114 -1.0824  1.3696  0.2880
 5794TIP3    H234570   0.006   1.086   1.252 -2.8069 -0.2246  0.3323
 5795TIP3   OH234571   1.642   3.467   0.623  0.0306 -0.2342  0.1542
 5795TIP3    H134572   1.569   3.440   0.567  0.3250 -0.3554 -0.1817
 5795TIP3    H234573   1.706   3.504   0.562 -0.4223  1.4046  0.6172
 5796TIP3   OH234574   3.443   1.765   5.728  0.1536 -0.3359 -0.0376
 5796TIP3    H134575   3.481   1.815   5.656 -1.3419 -1.5120 -1.7284
 5796TIP3    H234576   3.494   1.791   5.805  1.7122  1.0779 -1.4706
 5797TIP3   OH234577   4.424   1.050   0.821  0.0321 -0.2568  0.5527
 5797TIP3    H134578   4.336   1.069   0.788  0.7670  1.2764 -0.6381
 5797TIP3    H234579   4.411   0.974   0.879 -1.9379 -0.5826 -0.2027
 5798TIP3   OH234580   4.247   4.077   5.384  0.3796  0.2952 -0.6099
 5798TIP3    H134581   4.292   4.062   5.467  1.5258 -0.0683 -1.2868
 5798TIP3    H234582   4.176   4.013   5.383  1.3526 -0.8015 -0.6309
 5799TIP3   OH234583   3.796   3.149   7.733  0.1558  0.1643 -0.2123
 5799TIP3    H134584   3.822   3.240   7.746 -0.7263  0.3649  0.2264
 5799TIP3    H234585   3.708   3.144   7.770  0.2801 -0.9189 -0.0480
 5800TIP3   OH234586   3.963   1.715   6.257  0.2789  0.2352 -0.3698
 5800TIP3    H134587   3.989   1.682   6.171  1.8025 -0.1377  0.1932
 5800TIP3    H234588   4.037   1.694   6.314  0.0281  1.9630  0.6772
 5801TIP3   OH234589   2.077   1.439   6.004 -0.0022 -0.7382  0.0371
 5801TIP3    H134590   2.025   1.505   6.049  1.8501  1.5018 -0.9216
 5801TIP3    H234591   2.136   1.405   6.072 -0.3183 -0.7304  0.3193
 5802TIP3   OH234592   2.347   0.914   5.912 -0.2115  0.9799  0.4779
 5802TIP3    H134593   2.286   0.848   5.881  1.0172  0.4466 -0.9306
 5802TIP3    H234594   2.302   0.997   5.897 -0.8323  0.5754  0.0529
 5803TIP3   OH234595   4.872   4.850   1.053 -0.0804 -0.2961  0.1475
 5803TIP3    H134596   4.937   4.848   1.124  1.9206  0.0873 -1.5577
 5803TIP3    H234597   4.888   4.933   1.009  0.2907 -1.4640 -2.0640
 5804TIP3   OH234598   4.077   2.381   0.782  0.2855  0.5686 -0.0301
 5804TIP3    H134599   4.143   2.411   0.845 -1.6983  0.3359  2.2833
 5804TIP3    H234600   4.127   2.329   0.718  2.3233  0.2741  1.7062
 5805TIP3   OH234601   5.530   1.376   7.464  0.1868  0.0530  0.1326
 5805TIP3    H134602   5.451   1.357   7.514 -0.0759  2.7810  0.8710
 5805TIP3    H234603   5.599   1.326   7.509 -0.6090 -0.0691  1.2436
 5806TIP3   OH234604   5.042   5.415   0.980  0.2599  0.3642  0.1003
 5806TIP3    H134605   5.027   5.325   1.010  0.3601  0.0749 -0.6751
 5806TIP3    H234606   5.053   5.406   0.885 -1.1309  1.3529 -0.1885
 5807TIP3   OH234607   0.201   3.765   1.367 -0.3997  0.9266  0.2895
 5807TIP3    H134608   0.147   3.728   1.437  1.2940 -1.2221  0.5757
 5807TIP3    H234609   0.291   3.749   1.395  0.3512 -0.4190 -2.5152
 5808TIP3   OH234610   4.070   5.228   0.325  0.3778 -0.0321 -0.0894
 5808TIP3    H134611   4.077   5.304   0.383 -1.4801 -1.1535  1.7078
 5808TIP3    H234612   4.142   5.240   0.262  1.7897  1.8193  1.7315
 5809TIP3   OH234613   1.472   5.820   0.877 -0.3088 -0.2191  0.1461
 5809TIP3    H134614   1.444   5.845   0.789  1.8275  2.3431  0.0873
 5809TIP3    H234615   1.390   5.807   0.925 -1.5189 -1.3635 -2.0631
 5810TIP3   OH234616   1.580   1.025   7.275  0.8377  0.4131 -0.0151
 5810TIP3    H134617   1.591   0.946   7.221 -1.2988 -0.8531  1.2241
 5810TIP3    H234618   1.500   1.066   7.241  1.4892  1.6188 -0.1249
 5811TIP3   OH234619   3.274   0.287   6.493  0.1442  0.2105 -0.2105
 5811TIP3    H134620   3.259   0.198   6.525  2.7901 -0.5685 -0.8568
 5811TIP3    H234621   3.257   0.343   6.569 -0.8594 -0.8813  0.4048
 5812TIP3   OH234622   2.284   4.696   7.213  0.3105 -0.9258 -0.8497
 5812TIP3    H134623   2.337   4.766   7.175  0.7632 -2.3565 -3.0181
 5812TIP3    H234624   2.231   4.740   7.279  0.8769  1.3848 -1.8251
 5813TIP3   OH234625   1.350   0.427   5.620 -0.4829 -0.4427 -0.5314
 5813TIP3    H134626   1.315   0.497   5.674 -1.5088 -1.5269  0.2559
 5813TIP3    H234627   1.442   0.450   5.608  0.3208 -1.0304  3.2586
 5814TIP3   OH234628   6.446   6.128   0.659 -0.0552 -0.5653  0.2998
 5814TIP3    H134629   6.532   6.094   0.634  0.1521  0.8360 -1.0491
 5814TIP3    H234630   6.384   6.072   0.613  0.2058 -0.4143 -0.2449
 5815TIP3   OH234631   3.967   2.554   7.076  0.6437  0.3274  0.6394
 5815TIP3    H134632   3.997   2.571   6.987 -0.5673 -2.1476 -0.3229
 5815TIP3    H234633   3.875   2.579   7.076 -0.0934 -2.1510  0.3317
 5816TIP3   OH234634   0.074   1.948   6.126 -0.0177  0.0010  0.1377
 5816TIP3    H134635  -0.004   1.893   6.130  0.0486 -0.3556 -2.1611
 5816TIP3    H234636   0.048   2.022   6.072  0.9999  0.3025  0.0498
 5817TIP3   OH234637   4.403   1.229   7.719 -0.9176 -0.2280  0.3544
 5817TIP3    H134638   4.488   1.210   7.757 -1.7695 -1.4580  1.7682
 5817TIP3    H234639   4.422   1.252   7.628  1.0032  0.7688  0.9556
 5818TIP3   OH234640   3.125   1.939   0.984 -0.3864 -0.1500  0.4955
 5818TIP3    H134641   3.194   1.922   1.048  1.1026  2.4538 -0.2637
 5818TIP3    H234642   3.166   1.924   0.899 -1.5604 -1.0316  0.0533
 5819TIP3   OH234643   3.190   5.908   7.650 -0.1206 -0.1527  0.0219
 5819TIP3    H134644   3.153   5.820   7.647  0.0329 -0.2027 -0.7143
 5819TIP3    H234645   3.127   5.959   7.701 -0.2170 -0.6814  0.4431
 5820TIP3   OH234646   1.198   4.968   6.457  0.0243 -0.0687  0.3024
 5820TIP3    H134647   1.238   4.887   6.488  1.0934  0.4524  0.3361
 5820TIP3    H234648   1.127   4.986   6.519 -0.3497 -1.0648  0.1831
 5821TIP3   OH234649   3.393   0.011   7.429  0.3533  0.5961  0.1178
 5821TIP3    H134650   3.320   0.006   7.490 -0.6561  1.0650 -0.9954
 5821TIP3    H234651   3.360  -0.030   7.349  1.2955  0.8511 -0.4216
 5822TIP3   OH234652   1.458   4.682   6.880 -0.3128  0.2795 -0.2326
 5822TIP3    H134653   1.403   4.659   6.954 -0.6430 -0.2780 -0.6390
 5822TIP3    H234654   1.548   4.664   6.909 -0.4894 -0.5138 -0.1764
 5823TIP3   OH234655   0.657   3.833   0.140  0.2960 -0.0490  0.2337
 5823TIP3    H134656   0.689   3.790   0.220  0.3663 -1.6360 -0.6055
 5823TIP3    H234657   0.722   3.811   0.073 -0.8897 -0.6611 -0.7644
 5824TIP3   OH234658   4.411   4.755   1.317  0.0525 -0.2748 -0.0055
 5824TIP3    H134659   4.360   4.748   1.237  2.7317  2.0279 -2.1243
 5824TIP3    H234660   4.494   4.794   1.290  0.8144  1.4642  4.0120
 5825TIP3   OH234661   4.867   2.496   1.233  0.2478  0.4747 -0.3605
 5825TIP3    H134662   4.925   2.437   1.281  0.4113  2.0528  1.5260
 5825TIP3    H234663   4.925   2.544   1.174  0.5472  0.5572 -0.0062
 5826TIP3   OH234664   4.455   5.034   7.653  0.1409  0.3009 -0.2158
 5826TIP3    H134665   4.451   4.951   7.606 -0.6106 -1.0459  2.0392
 5826TIP3    H234666   4.430   5.012   7.743  0.8153  2.8239  0.6885
 5827TIP3   OH234667   3.908   2.702   7.559 -0.3173 -0.0521 -0.0100
 5827TIP3    H134668   3.856   2.753   7.621 -0.7310 -1.6734  1.0289
 5827TIP3    H234669   3.846   2.675   7.492 -0.8912 -1.9937  1.2337
 5828TIP3   OH234670   3.107   2.598   6.857 -0.0285 -0.5565  0.4397
 5828TIP3    H134671   3.174   2.541   6.894  0.5417  0.2189  0.6177
 5828TIP3    H234672   3.118   2.589   6.762 -1.2281 -2.2311  0.4089
 5829TIP3   OH234673   1.339   1.166   0.186 -0.6405  0.2582 -0.3139
 5829TIP3    H134674   1.298   1.242   0.226 -3.2593 -1.3350  0.2426
 5829TIP3    H234675   1.301   1.161   0.098 -0.6440 -0.4865 -0.2829
 5830TIP3   OH234676   6.543   6.029   6.352 -0.3711 -0.3402  0.4352
 5830TIP3    H134677   6.521   5.962   6.287  0.1302  1.5580 -1.8505
 5830TIP3    H234678   6.462   6.043   6.400 -0.8997 -1.4730 -0.0696
 5831TIP3   OH234679   0.005   1.820   2.341  0.0312  0.4213  0.0104
 5831TIP3    H134680   0.008   1.724   2.337  1.5393  0.4372  0.3155
 5831TIP3    H234681   0.090   1.848   2.308 -0.8030  1.7139 -1.1652
 5832TIP3   OH234682   4.094   4.337   0.639  0.5856  0.6550 -0.2447
 5832TIP3    H134683   4.177   4.296   0.614  1.8415  1.9057  1.5470
 5832TIP3    H234684   4.117   4.429   0.656 -0.7150  0.6334  2.1924
 5833TIP3   OH234685   4.802   4.742   5.827 -0.3467 -0.4454 -0.3416
 5833TIP3    H134686   4.840   4.751   5.740  0.0648 -0.4222 -0.1605
 5833TIP3    H234687   4.825   4.653   5.855  0.8976  0.0913  0.3927
 5834TIP3   OH234688   5.620   1.082   0.366 -0.2054 -0.6010 -0.1461
 5834TIP3    H134689   5.593   1.017   0.301 -2.3387 -0.4253  0.4980
 5834TIP3    H234690   5.554   1.151   0.360  0.5158  0.2289  1.0462
 5835TIP3   OH234691   2.019   5.783   0.274  0.0630 -0.4090  0.3855
 5835TIP3    H134692   2.035   5.714   0.210 -1.0394 -0.4077  0.0938
 5835TIP3    H234693   2.093   5.843   0.263 -0.7371  0.2733 -1.8042
 5836TIP3   OH234694   1.887   3.280   0.476  0.4066 -0.3697  0.0360
 5836TIP3    H134695   1.880   3.251   0.567  0.6146 -1.5556 -0.3086
 5836TIP3    H234696   1.816   3.235   0.430 -0.0044  0.5983 -0.3136
 5837TIP3   OH234697   0.670   0.439   0.363 -0.2091  0.0136  0.8492
 5837TIP3    H134698   0.656   0.363   0.306 -0.8804  0.0798  0.9166
 5837TIP3    H234699   0.616   0.421   0.441 -0.6502  0.7169  0.7156
 5838TIP3   OH234700   1.519   1.460   2.438  0.2772 -0.4996 -0.2601
 5838TIP3    H134701   1.436   1.469   2.484  0.5260  0.6564  0.0046
 5838TIP3    H234702   1.583   1.448   2.509  0.2656 -2.0085 -0.4949
 5839TIP3   OH234703   4.136   1.118   0.814 -0.2695 -0.1127  0.3306
 5839TIP3    H134704   4.138   1.058   0.889  3.4117 -0.8598 -0.1822
 5839TIP3    H234705   4.156   1.203   0.852 -1.7054  0.1401  0.5669
 5840TIP3   OH234706   1.942   4.562   7.387  0.2890 -0.1423  0.4702
 5840TIP3    H134707   1.858   4.531   7.355 -1.4769  5.1781 -1.0633
 5840TIP3    H234708   1.933   4.562   7.483  0.1499 -2.9261  0.5626
 5841TIP3   OH234709   1.379   1.500   0.061  0.0197 -0.6365  0.0048
 5841TIP3    H134710   1.350   1.517   0.150 -0.2532 -1.2193  0.0324
 5841TIP3    H234711   1.318   1.434   0.028 -0.0521 -0.2311 -0.7090
 5842TIP3   OH234712   4.531   2.247   6.121  0.8764  0.8699 -0.3783
 5842TIP3    H134713   4.440   2.224   6.106  1.0615  0.2756 -0.6046
 5842TIP3    H234714   4.577   2.217   6.043  1.2822  1.0722 -0.2216
 5843TIP3   OH234715   5.022   5.759   0.778  0.3577  0.5272  0.3148
 5843TIP3    H134716   4.950   5.779   0.838 -0.2224 -1.2531  0.2580
 5843TIP3    H234717   4.990   5.784   0.692 -0.6068 -1.1061  0.1559
 5844TIP3   OH234718   5.678   2.068   5.788  0.0436 -0.2388  0.2822
 5844TIP3    H134719   5.733   2.021   5.726 -1.7249 -3.4637  0.9668
 5844TIP3    H234720   5.710   2.041   5.874 -1.5308 -0.8874  0.6926
 5845TIP3   OH234721   1.190   3.283   2.405  0.1372 -0.2282  0.1581
 5845TIP3    H134722   1.193   3.264   2.499  1.2197 -0.6734  0.0468
 5845TIP3    H234723   1.281   3.284   2.378 -0.1705 -0.1761 -0.9134
 5846TIP3   OH234724   4.819   3.371   7.591 -0.1401 -0.1497  0.0489
 5846TIP3    H134725   4.894   3.426   7.609 -0.2427 -0.0339  0.1192
 5846TIP3    H234726   4.854   3.282   7.589 -0.0347 -0.1115  0.2570
 5847TIP3   OH234727   2.446   2.589   1.636 -0.6287 -0.4325 -0.1832
 5847TIP3    H134728   2.377   2.541   1.682  0.8728 -0.9917  1.6202
 5847TIP3    H234729   2.499   2.628   1.706  0.0700  1.1792 -1.5469
 5848TIP3   OH234730   0.825   5.214   5.888  0.1790 -0.0370 -0.2450
 5848TIP3    H134731   0.759   5.147   5.869  1.3112 -1.1390 -0.4136
 5848TIP3    H234732   0.809   5.282   5.823  0.0115 -0.8703 -1.1030
 5849TIP3   OH234733   4.120   0.512   0.960 -0.0016 -0.6314 -0.2352
 5849TIP3    H134734   4.167   0.579   1.010 -2.6106  1.0973  0.1037
 5849TIP3    H234735   4.091   0.558   0.881 -1.4844 -1.4426 -0.1962
 5850TIP3   OH234736   6.255   3.349   1.002 -0.8485  0.5121 -0.2504
 5850TIP3    H134737   6.161   3.359   1.014 -0.5246  0.0370  3.7008
 5850TIP3    H234738   6.295   3.405   1.069  1.5687 -2.0062  0.6265
 5851TIP3   OH234739   1.986   1.609   7.474  0.6466 -0.4108  0.1290
 5851TIP3    H134740   1.912   1.556   7.444  0.7686 -0.6458  0.2415
 5851TIP3    H234741   2.032   1.553   7.537  1.4591 -0.6291 -0.6396
 5852TIP3   OH234742   0.813   0.554   7.416 -0.4899  0.1847 -0.3423
 5852TIP3    H134743   0.777   0.643   7.409 -0.7627  0.2043  1.0889
 5852TIP3    H234744   0.839   0.546   7.508  1.2705 -0.5672 -0.8691
 5853TIP3   OH234745   3.144   3.155   0.741 -0.1165 -0.4213  0.0673
 5853TIP3    H134746   3.179   3.243   0.736 -2.0834  0.3687 -1.4112
 5853TIP3    H234747   3.089   3.155   0.820 -0.0203 -0.3645  0.1343
 5854TIP3   OH234748   2.388   5.559   7.167 -0.8179  0.2106 -0.7889
 5854TIP3    H134749   2.400   5.532   7.076 -2.0833  0.1177 -0.9449
 5854TIP3    H234750   2.456   5.625   7.182 -0.6490  0.2792 -1.8175
 5855TIP3   OH234751   2.028   2.600   0.382  0.4848  0.1037 -0.2676
 5855TIP3    H134752   2.070   2.657   0.446  0.1378 -1.0023  1.0082
 5855TIP3    H234753   2.036   2.512   0.419  1.1335 -0.7296 -2.2394
 5856TIP3   OH234754   1.611   3.530   0.903 -0.3084  0.6013  0.7880
 5856TIP3    H134755   1.556   3.606   0.884 -1.2868 -0.3972 -0.5872
 5856TIP3    H234756   1.659   3.514   0.822  1.4964  0.9770  1.7211
 5857TIP3   OH234757   1.164   5.030   7.407 -0.5310  0.1360 -0.0862
 5857TIP3    H134758   1.162   5.115   7.364 -2.6669  0.1783 -0.0042
 5857TIP3    H234759   1.252   4.996   7.390 -0.0799  1.7735 -1.2317
 5858TIP3   OH234760   3.788   5.281   1.649  0.1539  0.0245  0.3488
 5858TIP3    H134761   3.704   5.319   1.675  0.0397 -0.0953  0.1479
 5858TIP3    H234762   3.839   5.356   1.619 -0.0550  0.0264 -0.0007
 5859TIP3   OH234763   4.529   0.165   1.595 -0.0797  0.1685  0.5950
 5859TIP3    H134764   4.561   0.127   1.676 -0.0202  0.5334  0.7453
 5859TIP3    H234765   4.434   0.163   1.603 -0.0698  0.4838  0.8072
 5860TIP3   OH234766   4.896   4.214   7.653 -0.2667  0.2118  0.2076
 5860TIP3    H134767   4.968   4.253   7.702 -0.0941 -0.5300  0.5585
 5860TIP3    H234768   4.817   4.245   7.697 -0.1581  0.8544 -0.0480
 5861TIP3   OH234769   3.087   1.091   6.564 -0.1086  0.0503 -0.7924
 5861TIP3    H134770   3.022   1.064   6.500  0.1750  1.2616 -1.6269
 5861TIP3    H234771   3.144   1.015   6.574  0.2100  0.0399 -2.4657
 5862TIP3   OH234772   1.640   3.207   0.293  0.0286  0.4304  0.4062
 5862TIP3    H134773   1.704   3.148   0.253  1.9439  2.0290  0.9085
 5862TIP3    H234774   1.606   3.259   0.220 -1.7085 -1.2607 -0.0448
 5863TIP3   OH234775   3.266   3.383   7.264 -0.2270  0.2870 -0.0246
 5863TIP3    H134776   3.258   3.360   7.172  0.9771 -0.5814  0.0706
 5863TIP3    H234777   3.210   3.320   7.309  0.7403 -0.5665 -0.0068
 5864TIP3   OH234778   5.291   0.784   6.795 -0.2562 -0.1849  0.4622
 5864TIP3    H134779   5.253   0.736   6.722  0.7508 -0.9680  0.4268
 5864TIP3    H234780   5.376   0.813   6.763 -0.1379  0.1561  1.0617
 5865TIP3   OH234781   2.728   2.554   1.734 -0.2555 -0.0196 -0.0494
 5865TIP3    H134782   2.750   2.622   1.799 -2.1704  0.9554 -0.3702
 5865TIP3    H234783   2.760   2.473   1.773  0.6342  0.8418  1.0874
 5866TIP3   OH234784   1.600   3.256   2.116  0.4044 -0.6224  0.2170
 5866TIP3    H134785   1.605   3.166   2.083 -0.2540 -0.1632 -1.2522
 5866TIP3    H234786   1.688   3.292   2.104  0.5237 -0.8973  0.2691
 5867TIP3   OH234787   3.526   1.785   0.889 -0.6486 -0.3848 -0.3870
 5867TIP3    H134788   3.543   1.694   0.913 -0.9181 -0.2403  0.3839
 5867TIP3    H234789   3.572   1.836   0.956 -1.3183  0.0326 -0.2364
 5868TIP3   OH234790   6.092   4.371   0.068  0.1163 -0.3797 -0.9546
 5868TIP3    H134791   6.007   4.349   0.032 -0.3988  0.5825 -0.3652
 5868TIP3    H234792   6.077   4.385   0.161  1.0101 -0.6475 -0.7515
 5869TIP3   OH234793   4.618   6.446   7.126  0.3317 -0.3266  0.3073
 5869TIP3    H134794   4.606   6.536   7.157  2.2920  0.5988 -1.3262
 5869TIP3    H234795   4.690   6.412   7.179 -0.0017 -0.7239  0.5076
 5870TIP3   OH234796   3.667   1.253   6.730 -0.2945 -0.2855  0.0712
 5870TIP3    H134797   3.580   1.215   6.719 -0.0568 -0.7454 -0.2570
 5870TIP3    H234798   3.727   1.180   6.718  0.1877  0.2500 -0.8838
 5871TIP3   OH234799   1.114   0.113   0.185  0.4318 -0.2901 -0.1982
 5871TIP3    H134800   1.175   0.177   0.222 -0.4079  1.4575 -1.7040
 5871TIP3    H234801   1.111   0.043   0.250 -0.0298  2.0220  2.4626
 5872TIP3   OH234802   2.079   3.583   0.405 -0.2411  0.1103  0.1583
 5872TIP3    H134803   2.104   3.509   0.350 -1.5137 -0.1660 -0.0639
 5872TIP3    H234804   2.163   3.623   0.429  0.4805 -1.5085  0.4707
 5873TIP3   OH234805   4.509   4.238   0.891  0.1163  0.4713  0.5870
 5873TIP3    H134806   4.445   4.169   0.874 -0.2204  0.6514  1.1041
 5873TIP3    H234807   4.588   4.192   0.918  0.7747  0.1425 -1.6524
 5874TIP3   OH234808   3.858   5.906   0.936  0.2923 -0.3554  0.1551
 5874TIP3    H134809   3.764   5.898   0.955  0.1670 -0.3922 -0.4675
 5874TIP3    H234810   3.871   6.000   0.920  0.3033 -0.3903 -0.0460
 5875TIP3   OH234811   6.315   3.434   2.246 -0.4665 -0.0231 -0.0524
 5875TIP3    H134812   6.347   3.352   2.209  2.3493  0.8955  0.1485
 5875TIP3    H234813   6.383   3.498   2.225 -1.7603  1.8996  1.3016
 5876TIP3   OH234814   5.264   3.355   6.255  0.3995 -0.4499  0.6303
 5876TIP3    H134815   5.302   3.438   6.285  0.3382  0.4565 -1.6276
 5876TIP3    H234816   5.181   3.379   6.214  0.1658 -1.6876  0.3242
 5877TIP3   OH234817   0.998   0.699   0.630 -0.2201  0.2670 -0.1554
 5877TIP3    H134818   1.057   0.653   0.690 -0.6502 -0.4210 -0.2401
 5877TIP3    H234819   1.031   0.677   0.542 -0.9739 -0.6546 -0.2194
 5878TIP3   OH234820   1.291   0.106   7.713 -0.3815 -0.2136  0.1761
 5878TIP3    H134821   1.261   0.152   7.792  1.0929 -1.2257  1.3990
 5878TIP3    H234822   1.217   0.051   7.688 -0.3121 -1.2038  1.9506
 5879TIP3   OH234823   5.263   4.217   0.757  0.0501 -0.1912 -0.4920
 5879TIP3    H134824   5.185   4.171   0.727  1.0336 -2.3602  0.1085
 5879TIP3    H234825   5.291   4.269   0.682 -0.2022 -1.8618 -1.7970
 5880TIP3   OH234826   1.975   6.506   7.530  0.0757  0.3179  0.5681
 5880TIP3    H134827   1.901   6.566   7.530 -0.6183 -0.5264  0.8855
 5880TIP3    H234828   2.023   6.527   7.450  0.7334  2.3669  1.4326
 5881TIP3   OH234829   2.343   5.018   0.040  0.2226 -0.0703  0.0754
 5881TIP3    H134830   2.332   5.042   0.132  0.6100 -1.6238  0.5669
 5881TIP3    H234831   2.365   5.100  -0.004  0.1537  0.6787  1.3842
 5882TIP3   OH234832   0.301   5.516   7.587 -0.3874  0.6765  0.6507
 5882TIP3    H134833   0.385   5.478   7.611 -0.3637  0.8134  0.7861
 5882TIP3    H234834   0.324   5.582   7.520 -0.6186 -0.8375 -0.9960
 5883TIP3   OH234835   2.050   3.022   7.063  0.3555 -0.0021  0.0650
 5883TIP3    H134836   2.134   3.067   7.060  1.2324 -1.3685  1.7907
 5883TIP3    H234837   1.990   3.086   7.102  1.3044  0.1114  1.4248
 5884TIP3   OH234838   5.895   5.078   6.895  0.0251  0.0003  0.0946
 5884TIP3    H134839   5.917   5.120   6.978 -0.3619  0.3286  0.0371
 5884TIP3    H234840   5.891   5.150   6.832 -0.1262 -0.1899 -0.1135
 5885TIP3   OH234841   2.327   5.375   5.877 -0.0471 -0.2046  0.2073
 5885TIP3    H134842   2.342   5.280   5.883  1.0127 -0.3030 -2.5831
 5885TIP3    H234843   2.234   5.383   5.854  0.0699 -0.6397 -0.4488
 5886TIP3   OH234844   5.758   5.450   0.066  1.3821  0.3237 -0.0730
 5886TIP3    H134845   5.754   5.483   0.156 -1.2741  0.5418 -0.2094
 5886TIP3    H234846   5.828   5.385   0.068  0.8351 -0.2919  2.3799
 5887TIP3   OH234847   6.490   0.752   6.908  0.2690 -0.2477 -0.1141
 5887TIP3    H134848   6.557   0.723   6.846  1.1963 -0.7792  1.1112
 5887TIP3    H234849   6.470   0.675   6.961 -0.6741  0.1379  0.1318
 5888TIP3   OH234850   1.445   5.971   1.324 -0.1560 -0.1466 -0.2722
 5888TIP3    H134851   1.349   5.982   1.327 -0.2139 -0.7347  0.3643
 5888TIP3    H234852   1.465   5.921   1.403  0.3857 -2.2732 -1.6794
 5889TIP3   OH234853   0.085   2.201   2.270  0.0497 -0.4413  0.0274
 5889TIP3    H134854   0.026   2.149   2.324  1.5449 -0.5207  1.6703
 5889TIP3    H234855   0.155   2.228   2.329  1.2442  0.3365 -1.6414
 5890TIP3   OH234856   0.142   1.095   7.391 -0.2565 -0.0292 -0.0836
 5890TIP3    H134857   0.126   1.054   7.306 -0.4352  1.4773 -0.8136
 5890TIP3    H234858   0.230   1.131   7.384 -0.6094  0.8771  0.0282
 5891TIP3   OH234859   0.680   1.126   7.639  0.6151 -0.3895  0.0552
 5891TIP3    H134860   0.589   1.104   7.621  0.4372  0.0194  0.4556
 5891TIP3    H234861   0.676   1.195   7.705  1.2222 -0.6980  0.4276
 5892TIP3   OH234862   4.157   0.336   0.311 -0.0691  0.2079 -0.4317
 5892TIP3    H134863   4.168   0.301   0.400 -0.6975  1.7690  0.2870
 5892TIP3    H234864   4.091   0.279   0.272  0.2318 -0.5168  0.0815
 5893TIP3   OH234865   3.064   2.154   1.924 -0.3446 -0.3184  0.2846
 5893TIP3    H134866   3.023   2.082   1.877  1.0795  0.1134 -1.7491
 5893TIP3    H234867   3.113   2.112   1.995  0.5862 -1.4262 -0.9613
 5894TIP3   OH234868   6.378   4.120   7.477  0.3612  0.4796  0.5414
 5894TIP3    H134869   6.347   4.078   7.557  0.3790 -1.1979 -0.3089
 5894TIP3    H234870   6.456   4.070   7.452  1.8399  2.5085  0.7710
 5895TIP3   OH234871   4.599   4.781   0.952 -0.0838  0.0392  0.5305
 5895TIP3    H134872   4.626   4.689   0.949 -0.2926 -0.0261 -2.1950
 5895TIP3    H234873   4.652   4.819   1.021  1.7984 -1.6281  0.1262
 5896TIP3   OH234874   2.890   0.973   6.399  0.2859  0.1465  0.3462
 5896TIP3    H134875   2.845   1.000   6.319 -1.2127 -0.5282  0.9314
 5896TIP3    H234876   2.824   0.927   6.450  1.6367 -0.8348  1.2854
 5897TIP3   OH234877   4.354   4.280   5.877 -0.3849 -0.8346  0.1809
 5897TIP3    H134878   4.261   4.289   5.857 -0.3294  1.9521  0.7362
 5897TIP3    H234879   4.395   4.356   5.835  1.4036 -1.1479  1.2489
 5898TIP3   OH234880   6.324   3.494   7.553 -0.2514  0.1822  0.7629
 5898TIP3    H134881   6.331   3.589   7.564 -0.3083  0.1199  1.3948
 5898TIP3    H234882   6.327   3.459   7.642 -1.1068 -0.3523  0.5949
 5899TIP3   OH234883   6.590   0.754   7.209 -0.0889  0.1764  0.1676
 5899TIP3    H134884   6.617   0.846   7.217  2.8196 -0.4262 -1.3753
 5899TIP3    H234885   6.561   0.730   7.297 -1.4506  2.6496  0.5014
 5900TIP3   OH234886   4.211   3.041   1.634 -0.4013 -0.2661 -0.3894
 5900TIP3    H134887   4.196   2.974   1.566 -1.2255 -1.1419  0.6060
 5900TIP3    H234888   4.127   3.047   1.680  0.0770  0.4644  0.4167
 5901TIP3   OH234889   3.836   2.801   5.993 -0.0930  0.1924  0.2857
 5901TIP3    H134890   3.792   2.727   6.033 -0.2303  0.2799  0.2976
 5901TIP3    H234891   3.929   2.784   6.006 -0.1090 -0.1974 -0.1038
 5902TIP3   OH234892   5.555   6.389   0.442 -0.1059 -0.8976  0.1314
 5902TIP3    H134893   5.469   6.421   0.470 -0.0332  0.1574 -0.7670
 5902TIP3    H234894   5.547   6.379   0.347  0.6109 -1.2821  0.1082
 5903TIP3   OH234895   2.069   1.091   6.668 -0.5463 -0.0083 -0.9178
 5903TIP3    H134896   2.037   1.181   6.661  1.8453  0.9342 -0.7590
 5903TIP3    H234897   2.144   1.097   6.728  0.4804 -1.8412 -1.9351
 5904TIP3   OH234898   3.882   2.267   1.687 -0.0499  0.8443  0.2449
 5904TIP3    H134899   3.804   2.268   1.632  0.7232  1.0813 -0.8856
 5904TIP3    H234900   3.854   2.305   1.770 -2.4937 -3.6971  1.8615
 5905TIP3   OH234901   4.222   0.724   1.582  0.1212  0.2009  0.8331
 5905TIP3    H134902   4.140   0.705   1.537 -0.4294  0.6416  1.6191
 5905TIP3    H234903   4.215   0.817   1.605  1.8038  0.8854 -1.0446
 5906TIP3   OH234904   0.772   2.500   6.482 -0.3149  0.2231  0.7926
 5906TIP3    H134905   0.693   2.462   6.444 -0.4752  0.3210  1.0225
 5906TIP3    H234906   0.752   2.508   6.576 -0.1318  0.4902  0.8110
 5907TIP3   OH234907   2.101   6.476   5.687  0.6123 -0.6931 -0.3278
 5907TIP3    H134908   2.173   6.458   5.748  0.0580 -1.3677  0.1348
 5907TIP3    H234909   2.137   6.542   5.627  0.9372  0.5093  1.1374
 5908TIP3   OH234910   6.348   5.671   1.213  0.3858 -0.0651 -0.0766
 5908TIP3    H134911   6.438   5.674   1.181 -0.0240  0.8649 -1.2211
 5908TIP3    H234912   6.298   5.719   1.148 -0.5843  1.5454  1.7361
 5909TIP3   OH234913   3.796   6.052   7.344 -0.0162 -0.0611 -0.2763
 5909TIP3    H134914   3.791   6.115   7.416  0.0506  0.4099 -0.6782
 5909TIP3    H234915   3.789   5.966   7.386 -2.7039  0.2472  0.0959
 5910TIP3   OH234916   2.347   1.961   0.400 -0.4984 -0.1953 -0.0107
 5910TIP3    H134917   2.320   2.010   0.477 -0.8016  0.2725 -0.4063
 5910TIP3    H234918   2.265   1.924   0.365 -0.1580 -1.8197  0.8376
 5911TIP3   OH234919   5.223   2.179   5.730 -0.2537 -0.4244 -0.3893
 5911TIP3    H134920   5.192   2.107   5.675 -1.3616 -1.9220  2.0359
 5911TIP3    H234921   5.145   2.234   5.742  0.3764  0.7712 -1.5287
 5912TIP3   OH234922   6.597   0.204   7.417  0.0192 -0.2003  0.4803
 5912TIP3    H134923   6.610   0.276   7.478  0.1681 -0.3939  0.6793
 5912TIP3    H234924   6.673   0.148   7.430  1.1986  0.8457 -1.4291
 5913TIP3   OH234925   6.464   4.318   1.015  0.1098  0.6282  0.5281
 5913TIP3    H134926   6.444   4.405   1.051 -0.2196  1.4327 -1.4614
 5913TIP3    H234927   6.526   4.335   0.944 -0.9094 -0.6048 -0.7039
 5914TIP3   OH234928   3.863   2.210   7.236  0.3639  0.4103 -0.4426
 5914TIP3    H134929   3.814   2.228   7.156 -0.0935 -0.5438 -0.3883
 5914TIP3    H234930   3.931   2.277   7.238  0.4324  0.3937 -1.6655
 5915TIP3   OH234931   1.357   5.178   7.000 -0.1058  0.2367  0.4306
 5915TIP3    H134932   1.390   5.260   6.962  0.5116  0.5985  1.6816
 5915TIP3    H234933   1.436   5.130   7.023 -0.4654 -0.1070  0.9558
 5916TIP3   OH234934   2.887   1.513   7.243  0.6384  0.2246  0.1912
 5916TIP3    H134935   2.861   1.465   7.165 -1.3061 -1.4488  1.7527
 5916TIP3    H234936   2.830   1.590   7.244  0.8303  0.3740 -0.1332
 5917TIP3   OH234937   4.824   2.978   1.022 -0.1995  0.0648  0.5315
 5917TIP3    H134938   4.893   2.916   1.047 -0.3082  0.2315  1.2837
 5917TIP3    H234939   4.807   2.959   0.930  0.9991  0.1648  0.2658
 5918TIP3   OH234940   3.114   4.645   1.744 -0.7444 -0.2309  0.1513
 5918TIP3    H134941   3.122   4.669   1.651  2.1528 -1.7821 -0.1151
 5918TIP3    H234942   3.157   4.716   1.791 -1.5829  0.2055  0.2769
 5919TIP3   OH234943   5.766   0.558   1.010 -0.2767  0.1723 -0.0737
 5919TIP3    H134944   5.701   0.614   1.052 -1.4559 -1.6383  0.6290
 5919TIP3    H234945   5.732   0.469   1.021  1.4895 -0.7001 -1.1960
 5920TIP3   OH234946   1.250   2.514   5.522  0.0553 -0.0339  0.4624
 5920TIP3    H134947   1.164   2.556   5.515  0.2716  0.2884 -0.3916
 5920TIP3    H234948   1.249   2.446   5.455  0.1197 -0.6480  1.0870
 5921TIP3   OH234949   2.214   3.239   2.359 -0.1083  0.1484  0.0238
 5921TIP3    H134950   2.146   3.210   2.420  1.9751  0.5599  2.7660
 5921TIP3    H234951   2.241   3.160   2.312 -0.3507 -0.6413  1.1823
 5922TIP3   OH234952   3.632   6.004   7.118 -0.0043  0.2701  0.2665
 5922TIP3    H134953   3.613   5.928   7.174  1.6690  0.6522  1.4663
 5922TIP3    H234954   3.604   6.079   7.170  1.1171  0.6048  0.4120
 5923TIP3   OH234955   2.726   3.398   7.185  0.2567  0.3432  0.4404
 5923TIP3    H134956   2.707   3.491   7.172  0.5547  0.4328  0.6341
 5923TIP3    H234957   2.660   3.369   7.249 -0.0114  0.3533  0.1695
 5924TIP3   OH234958   1.052   2.622   1.763 -0.0667  0.3800 -0.3414
 5924TIP3    H134959   1.018   2.696   1.713 -0.6000 -0.3403 -1.0490
 5924TIP3    H234960   1.133   2.597   1.718  0.8572  1.3793  0.6921
 5925TIP3   OH234961   1.759   1.928   4.812 -0.0670  0.7518  0.1441
 5925TIP3    H134962   1.831   1.893   4.864 -0.4905  0.1720  0.3555
 5925TIP3    H234963   1.682   1.879   4.842 -0.2723  0.1594 -1.2570
 5926TIP3   OH234964   5.965   3.330   1.416  0.3087  0.0886  0.2152
 5926TIP3    H134965   6.025   3.267   1.457  2.2064  1.1188 -0.8398
 5926TIP3    H234966   6.022   3.391   1.370 -1.5994  0.8597 -1.2610
 5927TIP3   OH234967   0.820   2.540   7.020 -0.1017 -0.4210  0.1831
 5927TIP3    H134968   0.741   2.487   7.009 -0.3226 -0.6780  2.4671
 5927TIP3    H234969   0.855   2.513   7.105  0.7622  1.8598  0.6202
 5928TIP3   OH234970   3.574   6.205   2.286  0.3191 -0.6252 -0.1655
 5928TIP3    H134971   3.653   6.224   2.235 -0.1878 -0.9391 -1.0766
 5928TIP3    H234972   3.518   6.155   2.227 -1.6196  1.6515 -0.4415
 5929TIP3   OH234973   2.644   5.736   0.236 -0.1424  0.2799 -0.1739
 5929TIP3    H134974   2.686   5.747   0.321 -2.3306  1.2635  0.8626
 5929TIP3    H234975   2.714   5.750   0.173  1.1482  1.5089  1.4393
 5930TIP3   OH234976   2.581   2.912   6.776 -0.0285  0.4144  0.4127
 5930TIP3    H134977   2.597   2.869   6.692 -0.8849 -0.3228  0.6088
 5930TIP3    H234978   2.494   2.950   6.768  0.6591  2.0088  0.3052
 5931TIP3   OH234979   4.477   3.672   1.223 -0.0474  0.3359  0.1915
 5931TIP3    H134980   4.457   3.749   1.169  0.4389  0.2980 -0.0568
 5931TIP3    H234981   4.525   3.614   1.163  1.4521  0.7474  0.9383
 5932TIP3   OH234982   5.293   3.801   6.023 -0.3562  0.7919  1.1589
 5932TIP3    H134983   5.336   3.721   5.994  0.5021  1.2794  1.0325
 5932TIP3    H234984   5.242   3.775   6.099 -1.1039 -0.1174  0.3625
 5933TIP3   OH234985   6.033   0.671   7.675  0.2855 -0.1766 -0.2599
 5933TIP3    H134986   6.035   0.576   7.664  0.3494 -0.0014 -2.0394
 5933TIP3    H234987   6.124   0.697   7.687  0.1950 -0.3968  1.0484
 5934TIP3   OH234988   5.599   2.357   1.418 -0.4568 -0.0339 -0.2655
 5934TIP3    H134989   5.600   2.452   1.412  0.7090  0.0146  0.3884
 5934TIP3    H234990   5.619   2.338   1.510 -4.2599 -0.8866  0.5404
 5935TIP3   OH234991   0.769   1.124   0.254 -0.4687  0.4390 -0.0802
 5935TIP3    H134992   0.776   1.192   0.321 -0.4052  0.4243 -0.0718
 5935TIP3    H234993   0.796   1.168   0.173  0.4302  0.1909  0.0748
 5936TIP3   OH234994   0.117   6.117   7.366 -0.0299  0.0681  0.2079
 5936TIP3    H134995   0.030   6.080   7.383  0.0230 -0.0013  0.3298
 5936TIP3    H234996   0.169   6.092   7.443  0.8745 -2.2626 -1.0516
 5937TIP3   OH234997   0.802   3.226   0.888 -0.0475 -0.6840  0.0094
 5937TIP3    H134998   0.761   3.142   0.863 -0.0160 -0.6553 -0.1381
 5937TIP3    H234999   0.734   3.291   0.871 -0.4910 -0.8066  1.2345
 5938TIP3   OH235000   2.299   3.881   6.700  0.7246  0.0546 -0.2417
 5938TIP3    H135001   2.299   3.928   6.617  0.4824  0.2532 -0.1295
 5938TIP3    H235002   2.381   3.906   6.743  0.3391  0.8139  0.0656
 5939TIP3   OH235003   4.199   4.207   0.908  0.2945 -0.1303 -0.2051
 5939TIP3    H135004   4.185   4.266   0.833 -1.3591  0.4347  0.5015
 5939TIP3    H235005   4.228   4.125   0.868 -0.3368  0.2227 -1.4606
 5940TIP3   OH235006   2.396   0.499   5.376  0.2753 -0.1923  0.1077
 5940TIP3    H135007   2.432   0.493   5.287  2.0575  1.2757  0.6856
 5940TIP3    H235008   2.363   0.588   5.382 -3.4540 -1.3782 -0.2973
 5941TIP3   OH235009   0.203   2.302   2.866 -0.2539  0.0602 -0.0249
 5941TIP3    H135010   0.292   2.278   2.843  0.0603  1.4544 -0.3425
 5941TIP3    H235011   0.160   2.318   2.782 -0.3069  1.0480  0.1805
 5942TIP3   OH235012   3.027   1.923   6.058  0.3148 -0.3452 -0.0065
 5942TIP3    H135013   2.936   1.945   6.037 -0.1041 -1.3320  0.6898
 5942TIP3    H235014   3.025   1.899   6.151  1.0619 -1.4916 -0.2621
 5943TIP3   OH235015   1.434   3.345   0.443 -0.2106 -0.1910 -0.3640
 5943TIP3    H135016   1.493   3.301   0.381 -0.5824  1.0156 -1.6359
 5943TIP3    H235017   1.346   3.320   0.415 -0.3647 -0.3871  0.2800
 5944TIP3   OH235018   4.039   6.524   6.607  0.8084 -0.2997 -0.6251
 5944TIP3    H135019   4.001   6.609   6.630  0.2590 -0.9924  1.2279
 5944TIP3    H235020   4.104   6.508   6.676  0.4614 -1.6442 -0.5807
 5945TIP3   OH235021   1.251   2.507   1.494 -0.1569 -0.1576  0.7396
 5945TIP3    H135022   1.293   2.440   1.440  0.5090  0.7790  0.0469
 5945TIP3    H235023   1.303   2.586   1.479 -1.1810  0.6333  1.1763
 5946TIP3   OH235024   1.087   3.713   6.774  0.1555  0.8519 -0.1707
 5946TIP3    H135025   1.176   3.707   6.808  0.1770 -1.1398 -0.4443
 5946TIP3    H235026   1.043   3.636   6.809 -2.1461  2.8654  1.6988
 5947TIP3   OH235027   1.823   1.257   1.351 -0.2506  0.2533 -0.0357
 5947TIP3    H135028   1.854   1.167   1.364  0.1417  0.2390 -0.9510
 5947TIP3    H235029   1.731   1.256   1.376  0.0497 -0.1194  1.0948
 5948TIP3   OH235030   5.635   0.374   6.648  0.4878  0.5974 -0.0204
 5948TIP3    H135031   5.617   0.399   6.739  0.1113  0.5527 -0.0830
 5948TIP3    H235032   5.730   0.368   6.644  0.5149  0.7602  0.3300
 5949TIP3   OH235033   4.076   2.917   1.118 -0.1562  0.2755 -0.2909
 5949TIP3    H135034   4.157   2.936   1.165  0.7286  0.9647 -2.0223
 5949TIP3    H235035   4.103   2.873   1.038 -1.4121  1.0837 -1.2089
 5950TIP3   OH235036   3.229   2.941   6.483 -1.1828 -0.4104  0.2048
 5950TIP3    H135037   3.172   2.966   6.409  0.0841  0.5141 -0.4934
 5950TIP3    H235038   3.224   3.015   6.543 -0.2465 -0.0467 -0.1533
 5951TIP3   OH235039   0.914   4.311   7.533 -0.1439  0.4550  0.1793
 5951TIP3    H135040   0.977   4.306   7.605  0.7529 -0.4410 -0.6449
 5951TIP3    H235041   0.888   4.221   7.517 -0.8929  0.7202 -0.1563
 5952TIP3   OH235042   2.252   0.997   0.127 -0.1174 -0.0956 -0.2152
 5952TIP3    H135043   2.278   1.049   0.051 -0.7370  1.5337  0.6513
 5952TIP3    H235044   2.157   0.995   0.124 -0.1227 -0.6870  0.1117
 5953TIP3   OH235045   1.170   1.916   7.492  0.0998  0.6535  0.0246
 5953TIP3    H135046   1.119   1.963   7.557 -0.2853 -0.0612  0.2461
 5953TIP3    H235047   1.165   1.971   7.413  0.2968  1.3538  0.4940
 5954TIP3   OH235048   4.674   3.680   5.899  0.3551  0.2923  0.3015
 5954TIP3    H135049   4.736   3.610   5.918 -0.5610 -0.1952  1.5726
 5954TIP3    H235050   4.591   3.636   5.880  0.4820  0.8997 -2.0148
 5955TIP3   OH235051   3.705   6.404   0.183 -0.4414  0.8714 -0.3296
 5955TIP3    H135052   3.703   6.499   0.170  1.0401  1.0162  0.2000
 5955TIP3    H235053   3.706   6.368   0.094  0.2361  1.4223 -0.5623
 5956TIP3   OH235054   3.288   1.686   1.492  0.1265  0.0976  0.4066
 5956TIP3    H135055   3.237   1.764   1.471  0.4433  0.2167  0.0762
 5956TIP3    H235056   3.233   1.613   1.466 -0.1176  0.2118  0.5979
 5957TIP3   OH235057   3.123   4.664   1.211  0.4846  0.8977  0.0830
 5957TIP3    H135058   3.064   4.591   1.194  0.5640  0.6348  0.8625
 5957TIP3    H235059   3.195   4.653   1.149 -0.5807  1.5906 -1.3161
 5958TIP3   OH235060   5.150   4.295   6.356  0.0472  0.4293  0.4802
 5958TIP3    H135061   5.104   4.323   6.435 -1.2322  2.2708 -0.8347
 5958TIP3    H235062   5.239   4.326   6.367 -0.3436  1.4629  0.8363
 5959TIP3   OH235063   5.685   4.555   0.376  0.3360 -0.3008  0.5001
 5959TIP3    H135064   5.743   4.621   0.340 -0.8321  2.5593  3.3467
 5959TIP3    H235065   5.728   4.527   0.457 -0.6184 -0.7349  0.8700
 5960TIP3   OH235066   3.401   3.760   0.207 -0.1995 -0.6775 -0.0701
 5960TIP3    H135067   3.402   3.827   0.275 -0.1713 -0.2917 -0.4496
 5960TIP3    H235068   3.355   3.686   0.247 -1.8802  0.2318 -0.2798
 5961TIP3   OH235069   1.468   4.318   7.349  0.6700 -0.0119  0.0966
 5961TIP3    H135070   1.395   4.373   7.322  1.6928  1.0244 -0.6468
 5961TIP3    H235071   1.469   4.324   7.445 -1.3412 -1.5673  0.2839
 5962TIP3   OH235072   2.668   2.452   1.165  0.0831 -0.2156  0.3363
 5962TIP3    H135073   2.620   2.460   1.247 -1.5255 -0.4638 -0.5407
 5962TIP3    H235074   2.625   2.380   1.119  0.0439  0.7988 -1.2991
 5963TIP3   OH235075   3.573   5.513   6.621 -0.6931 -0.6097 -0.3226
 5963TIP3    H135076   3.495   5.569   6.618 -0.1960  0.0512 -0.9394
 5963TIP3    H235077   3.585   5.496   6.715 -0.5340  0.7719 -0.0659
 5964TIP3   OH235078   4.932   6.419   0.853 -0.0782  0.3821  0.2893
 5964TIP3    H135079   4.963   6.487   0.913  1.3402 -0.0947  0.1391
 5964TIP3    H235080   4.837   6.420   0.863 -0.3288  3.7294 -1.1641
 5965TIP3   OH235081   5.420   0.782   7.432 -0.3887  0.1565 -0.3913
 5965TIP3    H135082   5.378   0.700   7.406 -0.6082  0.0669  0.2411
 5965TIP3    H235083   5.455   0.765   7.519  1.1390  0.1727 -0.9708
 5966TIP3   OH235084   3.843   1.594   6.919  0.3818  0.8249 -0.3131
 5966TIP3    H135085   3.930   1.623   6.949  0.3196  0.4257  0.2793
 5966TIP3    H235086   3.831   1.509   6.962 -0.1694  0.7299 -0.6511
 5967TIP3   OH235087   2.770   1.784   7.360  0.0117  0.1294  0.1845
 5967TIP3    H135088   2.826   1.848   7.404 -1.1395  1.7800 -0.6102
 5967TIP3    H235089   2.768   1.812   7.269  1.1858 -2.3739 -0.6879
 5968TIP3   OH235090   2.628   1.756   5.872  0.2519 -0.5603  0.5051
 5968TIP3    H135091   2.658   1.828   5.927  0.3016 -1.0181  1.0775
 5968TIP3    H235092   2.683   1.682   5.896  2.3478 -0.0800 -2.2135
 5969TIP3   OH235093   3.598   0.942   7.544  0.3316  0.2727  0.1680
 5969TIP3    H135094   3.581   0.867   7.601  0.2249 -0.4018 -0.7268
 5969TIP3    H235095   3.594   0.906   7.455 -0.8060  1.5380 -0.3288
 5970TIP3   OH235096   2.768   0.072   0.111  0.1921 -0.2464  0.0293
 5970TIP3    H135097   2.706   0.069   0.039 -0.1682 -1.0166  0.3700
 5970TIP3    H235098   2.718   0.107   0.185  0.8588  1.6966 -0.3704
 5971TIP3   OH235099   2.653   1.347   7.160  0.3634 -0.7962  0.3204
 5971TIP3    H135100   2.575   1.345   7.104  1.5745  1.3633 -1.6191
 5971TIP3    H235101   2.621   1.382   7.244 -0.7060  0.5983 -0.6154
 5972TIP3   OH235102   3.810   4.210   7.265 -0.1375 -0.7973  0.0866
 5972TIP3    H135103   3.832   4.237   7.354 -0.8863 -0.2611  0.1234
 5972TIP3    H235104   3.792   4.116   7.271  1.4761 -1.1272  0.1636
 5973TIP3   OH235105   0.097   5.228   1.405  0.0859 -0.0313  0.4678
 5973TIP3    H135106   0.184   5.192   1.388 -0.1108 -0.1440 -0.3672
 5973TIP3    H235107   0.085   5.219   1.499 -0.3643 -3.1377  0.2380
 5974TIP3   OH235108   2.619   1.979   6.435 -0.2933  0.6139 -0.3086
 5974TIP3    H135109   2.621   1.898   6.486  1.5416 -0.3507 -1.8061
 5974TIP3    H235110   2.526   1.998   6.425 -0.7526 -0.9353  0.6274
 5975TIP3   OH235111   4.184   1.664   0.135 -0.3394  0.8933  0.1094
 5975TIP3    H135112   4.105   1.632   0.091 -0.0821  2.1280 -1.3456
 5975TIP3    H235113   4.233   1.585   0.158 -1.0225  0.1628 -0.8607
 5976TIP3   OH235114   0.452   5.104   1.975 -0.1962 -0.1443 -0.9906
 5976TIP3    H135115   0.418   5.192   1.959  1.4569  0.4208 -1.6305
 5976TIP3    H235116   0.403   5.072   2.051 -0.0184  1.7918 -0.0144
 5977TIP3   OH235117   2.297   0.564   2.021 -0.6318 -0.1461 -0.2258
 5977TIP3    H135118   2.216   0.614   2.034 -0.8754 -0.8571  1.1609
 5977TIP3    H235119   2.366   0.630   2.027 -1.0602  0.3966 -0.9626
 5978TIP3   OH235120   3.299   1.949   6.741  0.1280 -0.3420  0.4772
 5978TIP3    H135121   3.389   1.922   6.757  0.7917 -0.5019 -2.7844
 5978TIP3    H235122   3.298   1.975   6.649 -2.7387  1.5366  0.9025
 5979TIP3   OH235123   2.385   6.217   1.076 -0.0609  0.3400 -0.6087
 5979TIP3    H135124   2.307   6.254   1.035 -1.2754 -1.2462  0.1183
 5979TIP3    H235125   2.403   6.137   1.026  1.0030  0.5894 -0.6477
 5980TIP3   OH235126   4.960   0.648   6.460  0.8594  0.1627 -0.0491
 5980TIP3    H135127   4.942   0.584   6.391 -1.1050 -0.2336  0.7661
 5980TIP3    H235128   4.889   0.712   6.454  0.0321 -0.4355  2.1755
 5981TIP3   OH235129   4.922   4.586   1.199  0.3001 -0.5423 -0.2643
 5981TIP3    H135130   4.874   4.509   1.230 -1.1234  0.0720 -0.8742
 5981TIP3    H235131   4.869   4.661   1.227  0.6414  0.1404 -1.3732
 5982TIP3   OH235132   0.115   3.985   7.539 -0.3836 -0.1993 -0.6026
 5982TIP3    H135133   0.121   4.026   7.626  1.2271 -1.7147  0.0682
 5982TIP3    H235134   0.102   4.058   7.479 -1.0589  0.9370  0.8648
 5983TIP3   OH235135   3.997   4.781   1.705 -0.3765 -0.1153 -0.1063
 5983TIP3    H135136   3.944   4.729   1.767 -0.8728 -0.5298 -0.8593
 5983TIP3    H235137   3.964   4.870   1.716 -2.1592 -0.5434 -1.4365
 5984TIP3   OH235138   1.464   5.433   7.422  0.3048  0.0094  0.4535
 5984TIP3    H135139   1.545   5.395   7.387 -0.1963  0.0155 -0.7646
 5984TIP3    H235140   1.417   5.359   7.460  0.2493 -0.2380 -0.0930
 5985TIP3   OH235141   4.446   1.667   0.621  0.5276  0.5789  0.0913
 5985TIP3    H135142   4.506   1.594   0.639 -0.5409 -0.9668 -2.1403
 5985TIP3    H235143   4.487   1.714   0.548 -0.7765 -0.4155 -1.3692
 5986TIP3   OH235144   0.790   6.023   7.488  0.6466 -0.0428  0.7360
 5986TIP3    H135145   0.717   5.971   7.456  0.8243 -0.9773  1.7756
 5986TIP3    H235146   0.861   6.007   7.426 -0.2323  1.5500 -0.7720
 5987TIP3   OH235147   1.830   5.964   5.609 -0.1436  0.3367  0.0428
 5987TIP3    H135148   1.804   5.873   5.590  0.1800 -0.4773  3.0403
 5987TIP3    H235149   1.920   5.957   5.642 -0.3447  1.6442  0.9543
 5988TIP3   OH235150   4.657   4.841   0.083  0.3861  0.3195  0.7835
 5988TIP3    H135151   4.660   4.748   0.105 -0.7581  0.4865  1.7896
 5988TIP3    H235152   4.581   4.874   0.132 -0.0216  1.5101 -0.5853
 5989TIP3   OH235153   3.227   2.636   7.392  0.0113 -0.1402  0.6509
 5989TIP3    H135154   3.304   2.682   7.359 -0.4245 -0.3380 -0.6827
 5989TIP3    H235155   3.189   2.697   7.456  1.1547  0.0309  1.1965
 5990TIP3   OH235156   0.914   1.427   0.254 -0.7540 -0.5490  0.2036
 5990TIP3    H135157   0.883   1.424   0.344  2.0370 -0.6235  1.2556
 5990TIP3    H235158   0.970   1.505   0.250  0.6397 -1.5376 -0.8987
 5991TIP3   OH235159   0.956   4.141   2.476  0.4688 -0.3147  0.0033
 5991TIP3    H135160   0.963   4.135   2.381  1.9939 -2.3435  0.1657
 5991TIP3    H235161   0.868   4.175   2.492  0.6056  1.2439 -2.1216
 5992TIP3   OH235162   3.733   2.500   1.055 -0.2934 -0.4181  0.2216
 5992TIP3    H135163   3.756   2.592   1.068 -1.4159 -0.2294  1.0623
 5992TIP3    H235164   3.752   2.459   1.139 -0.3667 -0.8239  0.0408
 5993TIP3   OH235165   3.328   2.934   0.281  0.1722 -0.0393 -0.0945
 5993TIP3    H135166   3.410   2.919   0.328  0.1262  0.4133  0.1342
 5993TIP3    H235167   3.279   2.994   0.338 -0.2445 -0.1757 -0.3101
 5994TIP3   OH235168   5.659   1.738   7.594  0.7784  0.0542 -0.4021
 5994TIP3    H135169   5.699   1.823   7.577  1.4035 -0.2559 -0.5272
 5994TIP3    H235170   5.669   1.726   7.689  0.6506  0.1409 -0.3778
 5995TIP3   OH235171   4.728   0.460   0.930 -0.0092  0.4249  0.4948
 5995TIP3    H135172   4.672   0.429   0.859  0.8452 -0.4536  0.1669
 5995TIP3    H235173   4.681   0.438   1.010  0.1167 -0.8412  0.2396
 5996TIP3   OH235174   4.504   4.818   6.920  0.1795 -0.2149 -0.6115
 5996TIP3    H135175   4.559   4.757   6.870  1.4747 -0.6979  1.2903
 5996TIP3    H235176   4.433   4.764   6.954 -0.7433  0.1286 -1.9385
 5997TIP3   OH235177   3.942   3.065   5.838  0.1190  0.1751  0.1345
 5997TIP3    H135178   3.931   2.983   5.887  1.0233 -0.0798 -0.0528
 5997TIP3    H235179   4.029   3.056   5.798 -0.7546  0.1856 -1.8595
 5998TIP3   OH235180   4.827   3.222   0.514 -0.1627  0.5982  0.0033
 5998TIP3    H135181   4.876   3.208   0.595 -1.2534  3.0156  1.1968
 5998TIP3    H235182   4.835   3.140   0.466  0.4045 -0.9935  2.6359
 5999TIP3   OH235183   0.457   5.459   0.113 -0.0406  0.0540 -0.0757
 5999TIP3    H135184   0.505   5.451   0.031  2.2524  0.6358  1.0872
 5999TIP3    H235185   0.496   5.537   0.155 -0.1078 -1.0362  2.1510
 6000TIP3   OH235186   0.136   4.715   0.329 -0.4877 -0.0492  0.4861
 6000TIP3    H135187   0.131   4.759   0.243 -1.7100  0.6596  0.8949
 6000TIP3    H235188   0.045   4.707   0.357 -0.1408 -0.9477  1.3963
 6001TIP3   OH235189   1.891   0.435   0.318 -0.5871  0.3784 -0.6962
 6001TIP3    H135190   1.817   0.443   0.257 -0.6566 -0.0960 -0.6773
 6001TIP3    H235191   1.965   0.411   0.263 -0.6920 -0.2454 -0.5779
 6002TIP3   OH235192   2.328   0.591   6.600  0.4023  0.3162  0.1089
 6002TIP3    H135193   2.380   0.596   6.681 -0.3306 -0.6340  0.6465
 6002TIP3    H235194   2.361   0.664   6.547  2.7606 -0.6081  0.1530
 6003TIP3   OH235195   3.862   6.284   0.770 -0.1892  0.6504  0.1490
 6003TIP3    H135196   3.828   6.253   0.854  1.3984  0.5749  0.7971
 6003TIP3    H235197   3.873   6.205   0.718 -1.4435  0.7247 -0.2510
 6004TIP3   OH235198   5.978   6.408   0.488  0.1743  0.2984 -0.4746
 6004TIP3    H135199   5.966   6.389   0.395 -0.2402 -1.3903 -0.1066
 6004TIP3    H235200   6.025   6.332   0.522  0.2199  0.8489  0.7298
 6005TIP3   OH235201   3.763   6.437   6.945 -0.2919  0.0913 -0.0279
 6005TIP3    H135202   3.792   6.393   6.865  1.3677  1.2261 -0.1060
 6005TIP3    H235203   3.718   6.370   6.995  3.0289 -2.0932  0.3579
 6006TIP3   OH235204   2.728   0.215   6.615  0.3170 -0.0574  0.7331
 6006TIP3    H135205   2.806   0.210   6.560  0.8796 -0.3212  1.5368
 6006TIP3    H235206   2.673   0.281   6.573 -0.7434 -2.4803 -2.0125
 6007TIP3   OH235207   5.257   2.435   0.549  0.5861 -0.3903 -0.0617
 6007TIP3    H135208   5.195   2.388   0.494  1.1808 -0.6297 -0.5424
 6007TIP3    H235209   5.299   2.366   0.601  0.8313 -0.2918 -0.1289
 6008TIP3   OH235210   4.439   4.507   0.912 -0.0717  0.2376 -0.0357
 6008TIP3    H135211   4.466   4.417   0.898  1.7931  0.4555  1.7017
 6008TIP3    H235212   4.504   4.543   0.972 -0.7730  2.7434 -0.6310
 6009TIP3   OH235213   1.754   0.657   6.531  0.5108  0.6714  0.0674
 6009TIP3    H135214   1.820   0.590   6.548  1.1101  1.1853 -0.1534
 6009TIP3    H235215   1.695   0.618   6.466  0.0774 -0.1133  0.9168
 6010TIP3   OH235216   5.293   3.483   2.411  0.2182 -1.2275  0.7499
 6010TIP3    H135217   5.339   3.430   2.476  0.1335 -1.5098  0.5797
 6010TIP3    H235218   5.215   3.433   2.389  1.2591 -2.1490 -1.0888
 6011TIP3   OH235219   6.320   6.096   1.013 -0.0313 -0.1790 -0.1449
 6011TIP3    H135220   6.238   6.139   0.989  1.5750  2.5496 -1.1156
 6011TIP3    H235221   6.388   6.150   0.975  2.3580 -1.0728  2.4820
 6012TIP3   OH235222   2.091   4.560   6.832  0.3085  0.0236 -0.1700
 6012TIP3    H135223   2.186   4.548   6.824  0.1011 -0.7329 -2.4559
 6012TIP3    H235224   2.073   4.555   6.925  2.4853 -0.0760  0.2892
 6013TIP3   OH235225   3.836   3.972   5.917  0.5287  0.0421 -0.7068
 6013TIP3    H135226   3.838   4.067   5.911 -0.3382  0.2406  1.3512
 6013TIP3    H235227   3.822   3.942   5.827  1.3535  1.8063 -1.4656
 6014TIP3   OH235228   6.380   3.581   0.282  0.4113 -0.4358 -0.1890
 6014TIP3    H135229   6.414   3.665   0.250  1.4321 -0.3841  0.9447
 6014TIP3    H235230   6.325   3.605   0.356  0.1176 -0.7199 -0.3162
 6015TIP3   OH235231   2.196   3.275   7.124 -0.3811 -0.2135  0.6611
 6015TIP3    H135232   2.238   3.352   7.161 -0.6633 -0.9748  2.6941
 6015TIP3    H235233   2.196   3.290   7.029 -0.1268  2.0949  0.9863
 6016TIP3   OH235234   4.838   5.913   2.094 -0.0938  0.1948 -0.2744
 6016TIP3    H135235   4.886   5.847   2.045 -0.5941 -0.1960 -0.2407
 6016TIP3    H235236   4.901   5.985   2.106  0.6202 -0.4932  0.1614
 6017TIP3   OH235237   5.244   1.307   5.930 -0.0036 -0.5509  0.1033
 6017TIP3    H135238   5.269   1.399   5.935  1.0367 -0.8688  1.9899
 6017TIP3    H235239   5.307   1.268   5.869  0.1847 -0.1920  0.0674
 6018TIP3   OH235240   6.470   0.744   0.183 -0.5384 -0.2332 -0.0730
 6018TIP3    H135241   6.495   0.836   0.189 -1.4730 -0.0357  0.9660
 6018TIP3    H235242   6.536   0.705   0.125  0.0229  1.0204 -0.3022
 6019TIP3   OH235243   3.234   5.388   6.234  0.0535  0.2678  0.1514
 6019TIP3    H135244   3.179   5.450   6.281 -1.0048 -1.1533  0.8526
 6019TIP3    H235245   3.284   5.343   6.303 -0.4316 -0.8062 -0.1702
 6020TIP3   OH235246   3.181   4.315   7.111  0.1035  0.0042  0.4747
 6020TIP3    H135247   3.145   4.252   7.049  2.5574 -1.4457  0.4029
 6020TIP3    H235248   3.212   4.387   7.057  0.7373 -0.5007  0.1540
 6021TIP3   OH235249   1.725   3.061   7.010  0.1702 -0.6310 -0.6710
 6021TIP3    H135250   1.721   3.090   6.919 -0.9308  1.2916 -0.0723
 6021TIP3    H235251   1.782   3.124   7.053 -0.9033 -0.3120  0.3454
 6022TIP3   OH235252   5.266   0.436   6.853  0.0325 -0.3800 -0.1450
 6022TIP3    H135253   5.341   0.496   6.846  0.5319 -0.6933  1.8771
 6022TIP3    H235254   5.300   0.362   6.902 -1.1340 -1.4068 -0.8394
 6023TIP3   OH235255   2.868   6.374   0.071 -0.0311 -0.2574  0.2080
 6023TIP3    H135256   2.870   6.403  -0.020  0.8373  2.5447  1.0263
 6023TIP3    H235257   2.775   6.373   0.093 -0.1501  1.3897 -0.0843
 6024TIP3   OH235258   1.636   3.028   6.397  0.5729  0.3791 -0.1507
 6024TIP3    H135259   1.542   3.037   6.381  0.4700 -3.2157 -2.8012
 6024TIP3    H235260   1.644   2.949   6.450  2.1176  0.9065  0.4621
 6025TIP3   OH235261   3.406   1.159   6.620 -0.0809  0.2039 -0.3460
 6025TIP3    H135262   3.387   1.087   6.560  0.5708 -0.1378 -0.1571
 6025TIP3    H235263   3.406   1.118   6.707  3.4775 -0.3246 -0.4338
 6026TIP3   OH235264   6.548   1.883   7.422 -0.0111  0.4017  0.1319
 6026TIP3    H135265   6.584   1.806   7.467  3.8486  2.0189  0.2102
 6026TIP3    H235266   6.529   1.945   7.493 -2.1916 -0.0423  0.0002
 6027TIP3   OH235267   6.099   0.344   6.273  0.4102 -0.4755  0.2466
 6027TIP3    H135268   6.144   0.274   6.225  0.4358 -1.0154  1.0338
 6027TIP3    H235269   6.150   0.354   6.353  0.1321  0.1264  0.3502
 6028TIP3   OH235270   0.912   4.033   0.309 -0.0111  0.1611 -0.1344
 6028TIP3    H135271   0.966   4.105   0.276  0.2448 -0.9501 -2.3211
 6028TIP3    H235272   0.824   4.052   0.275 -0.6594  0.9760  1.8429
 6029TIP3   OH235273   1.789   1.204   7.377  0.4531 -0.5430  0.0810
 6029TIP3    H135274   1.724   1.165   7.318  1.3751 -0.2940 -1.1633
 6029TIP3    H235275   1.784   1.298   7.360  0.1583 -0.3845  1.0238
 6030TIP3   OH235276   0.036   3.986   6.840 -0.4611 -0.1971 -0.8476
 6030TIP3    H135277   0.016   3.996   6.933  0.5926 -3.0626 -0.1950
 6030TIP3    H235278  -0.034   4.033   6.795 -1.7180  0.2074  1.3760
 6031TIP3   OH235279   5.129   1.670   0.928  0.0892  0.2093  0.6304
 6031TIP3    H135280   5.203   1.723   0.897  0.7114 -0.4301  0.9996
 6031TIP3    H235281   5.056   1.695   0.870  1.1045 -0.6826 -1.1179
 6032TIP3   OH235282   1.078   4.980   0.757  0.2525 -0.4221  0.6843
 6032TIP3    H135283   1.143   4.910   0.756 -0.5978 -1.2476 -1.6065
 6032TIP3    H235284   1.005   4.947   0.704  0.5130  2.7811 -1.9941
 6033TIP3   OH235285   6.252   3.909   6.836 -0.0276 -0.3837  0.5396
 6033TIP3    H135286   6.331   3.950   6.801 -0.0377  0.4454  1.4464
 6033TIP3    H235287   6.187   3.980   6.837 -1.1603 -1.3258 -1.2826
 6034TIP3   OH235288   0.280   2.113   6.713  0.4594  0.4493  0.0905
 6034TIP3    H135289   0.267   2.123   6.808 -1.3956 -0.2418 -0.0473
 6034TIP3    H235290   0.222   2.178   6.674 -2.6006 -2.4499 -0.5866
 6035TIP3   OH235291   0.325   2.265   0.446  0.1977 -0.1218  0.1150
 6035TIP3    H135292   0.291   2.354   0.439  0.0339 -0.0276  1.8594
 6035TIP3    H235293   0.332   2.236   0.355 -4.1703 -0.0166 -0.4455
 6036TIP3   OH235294   4.660   2.442   7.303 -0.1215 -0.1816  0.0052
 6036TIP3    H135295   4.566   2.429   7.308  0.1703 -2.1986  1.8471
 6036TIP3    H235296   4.683   2.491   7.382  0.3930  0.2039 -0.3721
 6037TIP3   OH235297   3.773   4.140   0.450 -0.3834  0.4058 -0.0015
 6037TIP3    H135298   3.805   4.212   0.503  1.4353 -0.4857  0.2067
 6037TIP3    H235299   3.849   4.083   0.439 -1.4232 -0.8191 -1.2535
 6038TIP3   OH235300   1.773   3.856   6.921 -0.5332 -0.4038 -0.0374
 6038TIP3    H135301   1.810   3.770   6.901  0.4877 -0.2318  1.0030
 6038TIP3    H235302   1.838   3.918   6.887 -0.3502 -0.0766  0.9038
 6039TIP3   OH235303   0.362   1.177   5.371 -0.1986  0.1550  0.7242
 6039TIP3    H135304   0.355   1.104   5.309  3.1719 -0.5681  0.9749
 6039TIP3    H235305   0.283   1.229   5.357 -0.5070 -1.0102 -2.8084
 6040TIP3   OH235306   2.134   2.575   7.269  0.4271 -0.0695 -0.2090
 6040TIP3    H135307   2.084   2.494   7.273  0.7683 -0.3651 -1.6282
 6040TIP3    H235308   2.207   2.561   7.330 -1.4780  0.6168  2.3959
 6041TIP3   OH235309   6.558   6.581   6.404 -0.2216 -0.1203 -0.3900
 6041TIP3    H135310   6.651   6.563   6.418 -0.4830 -0.9915  0.3196
 6041TIP3    H235311   6.513   6.507   6.444 -1.2135  0.1132 -1.0429
 6042TIP3   OH235312   4.967   6.343   2.077  1.1373  0.5228 -0.0813
 6042TIP3    H135313   5.024   6.336   2.000  1.4789  0.7492  0.1534
 6042TIP3    H235314   4.977   6.259   2.122  1.2940  0.5680 -0.0329
 6043TIP3   OH235315   2.232   4.119   7.554 -0.1047  0.4323 -0.7232
 6043TIP3    H135316   2.224   4.034   7.598 -0.2378  0.3832 -0.8420
 6043TIP3    H235317   2.175   4.112   7.478 -3.1272  1.8927  1.2065
 6044TIP3   OH235318   5.335   4.542   2.527 -0.1605 -0.4600 -0.3494
 6044TIP3    H135319   5.416   4.593   2.521 -0.5602  0.4700  1.4756
 6044TIP3    H235320   5.363   4.457   2.562  0.1609 -0.5561 -0.8287
 6045TIP3   OH235321   2.782   2.499   0.078  0.4332  0.3270 -0.0895
 6045TIP3    H135322   2.736   2.415   0.084  0.3536  0.4727  1.7040
 6045TIP3    H235323   2.725   2.554   0.024 -0.2269 -0.3060 -0.0474
 6046TIP3   OH235324   5.529   5.674   0.648  0.2993 -0.1059  0.1883
 6046TIP3    H135325   5.555   5.765   0.657 -3.1677  1.2521 -1.5336
 6046TIP3    H235326   5.446   5.668   0.695 -0.5676 -1.7964 -1.4153
 6047TIP3   OH235327   2.712   3.400   5.387  0.5548 -0.2803  0.1907
 6047TIP3    H135328   2.789   3.400   5.330  0.4987 -0.7270  0.1110
 6047TIP3    H235329   2.720   3.319   5.437  0.3675 -0.1080  0.4970
 6048TIP3   OH235330   3.627   3.360   0.307 -0.1641  0.6215  0.3168
 6048TIP3    H135331   3.668   3.409   0.235 -1.3202  1.7002  0.3597
 6048TIP3    H235332   3.663   3.399   0.386  1.2384 -0.6804  0.3600
 6049TIP3   OH235333   0.521   1.278   0.434 -0.6302  0.4887 -0.4638
 6049TIP3    H135334   0.518   1.182   0.434  0.0185  0.4629 -0.5714
 6049TIP3    H235335   0.464   1.304   0.362 -0.4693  0.1676 -0.7083
 6050TIP3   OH235336   2.394   6.631   6.068 -0.0789 -0.2377 -0.4044
 6050TIP3    H135337   2.488   6.615   6.066 -0.2011 -0.9568 -1.1291
 6050TIP3    H235338   2.355   6.547   6.045 -0.8489  0.4940 -1.8896
 6051TIP3   OH235339   5.811   4.797   1.248 -0.3343  0.2271  0.0220
 6051TIP3    H135340   5.751   4.864   1.280 -0.4416  0.7569 -1.2291
 6051TIP3    H235341   5.778   4.775   1.161  0.6967 -0.2025 -0.2757
 6052TIP3   OH235342   1.508   0.288   2.200 -0.2582 -0.0950 -0.0063
 6052TIP3    H135343   1.467   0.232   2.134 -0.2212 -0.5534  0.3535
 6052TIP3    H235344   1.485   0.247   2.284 -0.1139  0.3525  0.2544
 6053TIP3   OH235345   0.200   0.780   6.451  0.2934  0.4732 -0.5295
 6053TIP3    H135346   0.132   0.842   6.478 -0.0809 -0.3292  0.4117
 6053TIP3    H235347   0.156   0.696   6.447  1.4726 -0.2978  1.3454
 6054TIP3   OH235348   4.666   3.348   6.504 -0.7676  0.3142 -0.2648
 6054TIP3    H135349   4.695   3.382   6.420  0.2543 -3.5782 -1.7203
 6054TIP3    H235350   4.576   3.319   6.489 -0.4114 -0.8649 -0.2469
 6055TIP3   OH235351   2.770   1.661   7.623 -0.3344 -0.0428 -0.0824
 6055TIP3    H135352   2.741   1.675   7.533 -2.0561 -0.3371  0.3954
 6055TIP3    H235353   2.761   1.567   7.637 -0.8246  0.1051  0.6349
 6056TIP3   OH235354   4.121   4.526   0.220 -0.6320  0.4193 -0.2514
 6056TIP3    H135355   4.210   4.492   0.214 -0.8870 -0.3936  0.3999
 6056TIP3    H235356   4.131   4.621   0.212  0.2728  0.3282 -0.3146
 6057TIP3   OH235357   1.548   5.396   0.925  0.2793  0.9325 -0.4166
 6057TIP3    H135358   1.548   5.400   1.021 -1.7571 -0.5402 -0.2786
 6057TIP3    H235359   1.484   5.328   0.904  0.3240  1.5383 -2.8489
 6058TIP3   OH235360   1.157   1.120   7.474  0.0734  0.1523 -0.4288
 6058TIP3    H135361   1.070   1.096   7.504 -0.4003 -0.4956 -2.2308
 6058TIP3    H235362   1.211   1.043   7.491  0.8256  1.1887  2.4463
 6059TIP3   OH235363   3.813   2.274   0.819  0.2657 -0.4295 -0.0100
 6059TIP3    H135364   3.819   2.324   0.737 -1.2521  0.1932  0.2323
 6059TIP3    H235365   3.880   2.314   0.875 -1.9858  2.6253  0.7800
 6060TIP3   OH235366   1.819   3.991   5.917 -0.0713  0.3849  0.1029
 6060TIP3    H135367   1.812   3.963   5.825 -0.7709  0.8582  0.0028
 6060TIP3    H235368   1.910   4.019   5.926  0.0473  0.1821 -0.4034
 6061TIP3   OH235369   3.136   5.990   6.957 -0.7627 -1.0132  0.6218
 6061TIP3    H135370   3.207   6.051   6.976 -0.2630 -0.8923 -1.3870
 6061TIP3    H235371   3.179   5.905   6.946 -0.5410 -0.6351 -2.4174
 6062TIP3   OH235372   4.167   1.211   0.309 -0.3062  0.1294 -0.5579
 6062TIP3    H135373   4.168   1.237   0.401 -1.5038 -0.8577 -0.2295
 6062TIP3    H235374   4.174   1.293   0.261 -1.4047  0.8330  0.4289
 6063TIP3   OH235375   2.544   0.989   6.974 -0.1923 -0.2370  0.2736
 6063TIP3    H135376   2.454   0.965   6.956  0.1808 -1.1698 -0.4359
 6063TIP3    H235377   2.550   0.993   7.069 -1.2503  0.9498  0.3057
 6064TIP3   OH235378   3.992   3.899   7.096  1.0187 -0.3493  0.0197
 6064TIP3    H135379   4.057   3.967   7.112  0.4687  1.4908 -4.1133
 6064TIP3    H235380   4.039   3.832   7.046  0.4801 -0.5880 -0.1760
 6065TIP3   OH235381   5.968   2.442   6.506 -0.1693  0.1957  0.0792
 6065TIP3    H135382   5.983   2.506   6.576 -0.2268  0.5833 -0.2564
 6065TIP3    H235383   5.997   2.359   6.543  1.4299  0.6767 -0.0321
 6066TIP3   OH235384   4.369   2.184   2.345  0.2784 -0.5692 -0.3992
 6066TIP3    H135385   4.273   2.176   2.346  0.2474 -0.4081  1.1677
 6066TIP3    H235386   4.400   2.095   2.327 -0.1393 -0.3108 -2.6672
 6067TIP3   OH235387   5.922   0.866   7.160  0.0345 -0.6565  0.2306
 6067TIP3    H135388   5.920   0.821   7.245  0.2928  0.1330  0.6673
 6067TIP3    H235389   5.830   0.884   7.140  0.0348  0.2418  0.9539
 6068TIP3   OH235390   4.937   0.947   7.710 -0.1250  0.1620 -0.2679
 6068TIP3    H135391   4.999   0.882   7.744 -1.0575 -0.6571 -0.0904
 6068TIP3    H235392   4.908   0.911   7.626 -0.1299  0.6861 -0.4916
 6069TIP3   OH235393   2.400   5.573   6.043 -0.2656  0.2502 -0.4008
 6069TIP3    H135394   2.356   5.509   5.988  0.6681 -0.4820 -0.3284
 6069TIP3    H235395   2.341   5.587   6.117 -1.3660  0.9757 -1.3968
 6070TIP3   OH235396   4.096   2.541   1.476 -0.2531 -0.3542  0.5669
 6070TIP3    H135397   4.110   2.603   1.548  0.9944 -1.3859  1.2454
 6070TIP3    H235398   4.002   2.547   1.458 -0.1563  1.8369  0.4914
 6071TIP3   OH235399   2.697   4.005   0.133 -0.2012  0.4284  0.3237
 6071TIP3    H135400   2.752   3.970   0.203 -0.5402 -1.8519 -0.4470
 6071TIP3    H235401   2.755   4.061   0.082  0.6589  0.2576  1.0877
 6072TIP3   OH235402   1.505   2.489   5.653 -0.4505  0.4217 -0.8189
 6072TIP3    H135403   1.448   2.489   5.576 -0.9350 -1.0840 -0.4963
 6072TIP3    H235404   1.543   2.401   5.654  2.0083  1.3950 -1.0947
 6073TIP3   OH235405   0.287   5.933   0.703 -0.0758  0.0369  0.7819
 6073TIP3    H135406   0.300   5.894   0.790  0.2521 -0.0432  0.6958
 6073TIP3    H235407   0.321   5.868   0.642 -1.2738 -0.3699  0.5289
 6074TIP3   OH235408   3.851   0.218   0.823 -0.6306 -0.2072  0.1752
 6074TIP3    H135409   3.888   0.138   0.788  1.8182  0.7450  0.4229
 6074TIP3    H235410   3.792   0.189   0.893 -0.3776 -1.7933 -0.2468
 6075TIP3   OH235411   2.169   1.543   7.669 -0.2417  0.3110 -0.0307
 6075TIP3    H135412   2.123   1.569   7.749  0.1198  0.7013  0.0501
 6075TIP3    H235413   2.260   1.531   7.696 -0.2333 -0.1600 -0.2555
 6076TIP3   OH235414   0.215   0.407   0.891  0.2137  0.0296  0.1801
 6076TIP3    H135415   0.192   0.478   0.951  0.3327  1.9088 -1.8647
 6076TIP3    H235416   0.304   0.427   0.863  0.6593 -1.5594  0.3566
 6077TIP3   OH235417   6.053   4.617   1.272  0.8660 -0.3665 -0.3713
 6077TIP3    H135418   5.975   4.626   1.218  0.1394 -0.6449  0.5930
 6077TIP3    H235419   6.111   4.687   1.243 -0.1025  0.3950 -0.5296
 6078TIP3   OH235420   0.641   6.434   5.920 -0.1276  0.0758  0.5365
 6078TIP3    H135421   0.580   6.376   5.874  0.5157 -0.9226  0.9055
 6078TIP3    H235422   0.691   6.477   5.851  0.9862 -1.5771  0.2588
 6079TIP3   OH235423   0.329   6.603   7.665 -0.3251  0.6087  0.2171
 6079TIP3    H135424   0.367   6.687   7.638  0.2385  0.1381 -0.4977
 6079TIP3    H235425   0.403   6.542   7.664 -1.0387 -0.2974 -1.0686
 6080TIP3   OH235426   6.010   5.692   7.580 -0.8928  0.0877  0.0840
 6080TIP3    H135427   6.100   5.707   7.551 -0.7686  2.1201  1.2674
 6080TIP3    H235428   6.005   5.598   7.598  0.7565 -0.1841 -0.7280
 6081TIP3   OH235429   1.060   2.897   6.217 -0.5444 -0.7916 -0.3059
 6081TIP3    H135430   0.982   2.902   6.272 -0.2189  0.0386  0.0999
 6081TIP3    H235431   1.030   2.859   6.135 -0.8388 -3.1029  0.7953
 6082TIP3   OH235432   0.966   5.767   1.747  0.3103  0.3879  0.4978
 6082TIP3    H135433   1.016   5.695   1.787  0.5377 -0.4976 -1.2628
 6082TIP3    H235434   0.894   5.723   1.701  0.6831  1.2201 -0.9418
 6083TIP3   OH235435   5.010   2.369   6.672  0.2511 -0.0015  0.2451
 6083TIP3    H135436   5.079   2.311   6.640 -1.8650 -1.2857 -2.4289
 6083TIP3    H235437   5.031   2.454   6.635  0.4779 -0.3598 -0.4763
   6.64122   6.64122   7.75292
